5280344
  -OEChem-11132523492D

 51 51  0     0  0  0  0  0  0999 V2000
    2.5369   -3.2500    0.0000 O   0  0  0  0  0  0  0  0  0  0  0  0
    2.5369   -1.2500    0.0000 O   0  0  0  0  0  0  0  0  0  0  0  0
    4.2690   -4.2500    0.0000 O   0  0  0  0  0  0  0  0  0  0  0  0
    6.0010   -3.2500    0.0000 O   0  0  0  0  0  0  0  0  0  0  0  0
    4.2690   -1.2500    0.0000 C   0  0  0  0  0  0  0  0  0  0  0  0
    4.2690   -0.2500    0.0000 C   0  0  0  0  0  0  0  0  0  0  0  0
    5.1350   -1.7500    0.0000 C   0  0  0  0  0  0  0  0  0  0  0  0
    6.0010    1.7500    0.0000 C   0  0  0  0  0  0  0  0  0  0  0  0
    5.1350    1.2500    0.0000 C   0  0  0  0  0  0  0  0  0  0  0  0
    5.1350    0.2500    0.0000 C   0  0  0  0  0  0  0  0  0  0  0  0
    3.4030   -1.7500    0.0000 C   0  0  0  0  0  0  0  0  0  0  0  0
    6.0010    2.7500    0.0000 C   0  0  0  0  0  0  0  0  0  0  0  0
    5.1350   -2.7500    0.0000 C   0  0  0  0  0  0  0  0  0  0  0  0
    3.4030   -2.7500    0.0000 C   0  0  0  0  0  0  0  0  0  0  0  0
    4.2690   -3.2500    0.0000 C   0  0  0  0  0  0  0  0  0  0  0  0
    6.0010   -1.2500    0.0000 C   0  0  0  0  0  0  0  0  0  0  0  0
    4.2690    1.7500    0.0000 C   0  0  0  0  0  0  0  0  0  0  0  0
    6.8671    3.2500    0.0000 C   0  0  0  0  0  0  0  0  0  0  0  0
    6.8671    4.2500    0.0000 C   0  0  0  0  0  0  0  0  0  0  0  0
    7.7331    4.7500    0.0000 C   0  0  0  0  0  0  0  0  0  0  0  0
    6.0010    4.7500    0.0000 C   0  0  0  0  0  0  0  0  0  0  0  0
    2.5369   -4.2500    0.0000 C   0  0  0  0  0  0  0  0  0  0  0  0
    5.1350   -4.7500    0.0000 C   0  0  0  0  0  0  0  0  0  0  0  0
    4.0569    0.3326    0.0000 H   0  0  0  0  0  0  0  0  0  0  0  0
    3.6584   -0.3577    0.0000 H   0  0  0  0  0  0  0  0  0  0  0  0
    6.2131    1.1674    0.0000 H   0  0  0  0  0  0  0  0  0  0  0  0
    6.6116    1.8577    0.0000 H   0  0  0  0  0  0  0  0  0  0  0  0
    5.6720   -0.0600    0.0000 H   0  0  0  0  0  0  0  0  0  0  0  0
    5.7890    3.3326    0.0000 H   0  0  0  0  0  0  0  0  0  0  0  0
    5.3905    2.6423    0.0000 H   0  0  0  0  0  0  0  0  0  0  0  0
    6.3110   -1.7869    0.0000 H   0  0  0  0  0  0  0  0  0  0  0  0
    6.5380   -0.9400    0.0000 H   0  0  0  0  0  0  0  0  0  0  0  0
    5.6910   -0.7131    0.0000 H   0  0  0  0  0  0  0  0  0  0  0  0
    4.5790    2.2869    0.0000 H   0  0  0  0  0  0  0  0  0  0  0  0
    3.7320    2.0600    0.0000 H   0  0  0  0  0  0  0  0  0  0  0  0
    3.9590    1.2131    0.0000 H   0  0  0  0  0  0  0  0  0  0  0  0
    7.4040    2.9400    0.0000 H   0  0  0  0  0  0  0  0  0  0  0  0
    2.0000   -1.5600    0.0000 H   0  0  0  0  0  0  0  0  0  0  0  0
    6.5380   -2.9400    0.0000 H   0  0  0  0  0  0  0  0  0  0  0  0
    8.0431    4.2131    0.0000 H   0  0  0  0  0  0  0  0  0  0  0  0
    8.2700    5.0600    0.0000 H   0  0  0  0  0  0  0  0  0  0  0  0
    7.4231    5.2869    0.0000 H   0  0  0  0  0  0  0  0  0  0  0  0
    6.3110    5.2869    0.0000 H   0  0  0  0  0  0  0  0  0  0  0  0
    5.4641    5.0600    0.0000 H   0  0  0  0  0  0  0  0  0  0  0  0
    5.6910    4.2131    0.0000 H   0  0  0  0  0  0  0  0  0  0  0  0
    1.9169   -4.2500    0.0000 H   0  0  0  0  0  0  0  0  0  0  0  0
    2.5369   -4.8700    0.0000 H   0  0  0  0  0  0  0  0  0  0  0  0
    3.1569   -4.2500    0.0000 H   0  0  0  0  0  0  0  0  0  0  0  0
    4.8250   -5.2869    0.0000 H   0  0  0  0  0  0  0  0  0  0  0  0
    5.6720   -5.0600    0.0000 H   0  0  0  0  0  0  0  0  0  0  0  0
    5.4450   -4.2131    0.0000 H   0  0  0  0  0  0  0  0  0  0  0  0
  1 14  1  0  0  0  0
  1 22  1  0  0  0  0
  2 11  1  0  0  0  0
  2 38  1  0  0  0  0
  3 15  1  0  0  0  0
  3 23  1  0  0  0  0
  4 13  1  0  0  0  0
  4 39  1  0  0  0  0
  5  6  1  0  0  0  0
  5  7  2  0  0  0  0
  5 11  1  0  0  0  0
  6 10  1  0  0  0  0
  6 24  1  0  0  0  0
  6 25  1  0  0  0  0
  7 13  1  0  0  0  0
  7 16  1  0  0  0  0
  8  9  1  0  0  0  0
  8 12  1  0  0  0  0
  8 26  1  0  0  0  0
  8 27  1  0  0  0  0
  9 10  2  0  0  0  0
  9 17  1  0  0  0  0
 10 28  1  0  0  0  0
 11 14  2  0  0  0  0
 12 18  1  0  0  0  0
 12 29  1  0  0  0  0
 12 30  1  0  0  0  0
 13 15  2  0  0  0  0
 14 15  1  0  0  0  0
 16 31  1  0  0  0  0
 16 32  1  0  0  0  0
 16 33  1  0  0  0  0
 17 34  1  0  0  0  0
 17 35  1  0  0  0  0
 17 36  1  0  0  0  0
 18 19  2  0  0  0  0
 18 37  1  0  0  0  0
 19 20  1  0  0  0  0
 19 21  1  0  0  0  0
 20 40  1  0  0  0  0
 20 41  1  0  0  0  0
 20 42  1  0  0  0  0
 21 43  1  0  0  0  0
 21 44  1  0  0  0  0
 21 45  1  0  0  0  0
 22 46  1  0  0  0  0
 22 47  1  0  0  0  0
 22 48  1  0  0  0  0
 23 49  1  0  0  0  0
 23 50  1  0  0  0  0
 23 51  1  0  0  0  0
M  END
> <PUBCHEM_COMPOUND_CID>
5280344

> <PUBCHEM_COMPOUND_CANONICALIZED>
1

> <PUBCHEM_CACTVS_COMPLEXITY>
412

> <PUBCHEM_CACTVS_HBOND_ACCEPTOR>
4

> <PUBCHEM_CACTVS_HBOND_DONOR>
2

> <PUBCHEM_CACTVS_ROTATABLE_BOND>
7

> <PUBCHEM_CACTVS_SUBSKEYS>
AAADceB4OAAAAAAAAAAAAAAAAAAAAAAAAAAwAAAAAAAAAAABAAAAGgAACAAADASAmAICBoAABgCAAiBCAAACCAAgIAAAiAAEiIgNJyKGMRqAcCMlwBULuAfA4LwOoQABCAAYQABCAAIQADCAAAAAAAAAAA==

> <PUBCHEM_IUPAC_OPENEYE_NAME>
2-[(2E)-3,7-dimethylocta-2,6-dienyl]-5,6-dimethoxy-3-methyl-benzene-1,4-diol

> <PUBCHEM_IUPAC_CAS_NAME>
2-[(2E)-3,7-dimethylocta-2,6-dienyl]-5,6-dimethoxy-3-methylbenzene-1,4-diol

> <PUBCHEM_IUPAC_NAME_MARKUP>
2-[(2<I>E</I>)-3,7-dimethylocta-2,6-dienyl]-5,6-dimethoxy-3-methylbenzene-1,4-diol

> <PUBCHEM_IUPAC_NAME>
2-[(2E)-3,7-dimethylocta-2,6-dienyl]-5,6-dimethoxy-3-methylbenzene-1,4-diol

> <PUBCHEM_IUPAC_SYSTEMATIC_NAME>
2-[(2E)-3,7-dimethylocta-2,6-dienyl]-5,6-dimethoxy-3-methyl-benzene-1,4-diol

> <PUBCHEM_IUPAC_TRADITIONAL_NAME>
2-[(2E)-3,7-dimethylocta-2,6-dienyl]-5,6-dimethoxy-3-methyl-hydroquinone

> <PUBCHEM_IUPAC_INCHI>
InChI=1S/C19H28O4/c1-12(2)8-7-9-13(3)10-11-15-14(4)16(20)18(22-5)19(23-6)17(15)21/h8,10,20-21H,7,9,11H2,1-6H3/b13-10+

> <PUBCHEM_IUPAC_INCHIKEY>
RNUCUWWMTTWKAH-JLHYYAGUSA-N

> <PUBCHEM_XLOGP3_AA>
5.3

> <PUBCHEM_EXACT_MASS>
320.19875937

> <PUBCHEM_MOLECULAR_FORMULA>
C19H28O4

> <PUBCHEM_MOLECULAR_WEIGHT>
320.4

> <PUBCHEM_SMILES>
CC1=C(C(=C(C(=C1O)OC)OC)O)C/C=C(\C)/CCC=C(C)C

> <PUBCHEM_CONNECTIVITY_SMILES>
CC1=C(C(=C(C(=C1O)OC)OC)O)CC=C(C)CCC=C(C)C

> <PUBCHEM_CACTVS_TPSA>
58.9

> <PUBCHEM_MONOISOTOPIC_WEIGHT>
320.19875937

> <PUBCHEM_TOTAL_CHARGE>
0

> <PUBCHEM_HEAVY_ATOM_COUNT>
23

> <PUBCHEM_ATOM_DEF_STEREO_COUNT>
0

> <PUBCHEM_ATOM_UDEF_STEREO_COUNT>
0

> <PUBCHEM_BOND_DEF_STEREO_COUNT>
1

> <PUBCHEM_BOND_UDEF_STEREO_COUNT>
0

> <PUBCHEM_ISOTOPIC_ATOM_COUNT>
0

> <PUBCHEM_COMPONENT_COUNT>
1

> <PUBCHEM_CACTVS_TAUTO_COUNT>
-1

> <PUBCHEM_COORDINATE_TYPE>
1
5
255

> <PUBCHEM_BONDANNOTATIONS>
11  14  8
13  15  8
14  15  8
5  11  8
5  7  8
7  13  8

$$$$
