103350
  -OEChem-11142516422D

119123  0     1  0  0  0  0  0999 V2000
    9.8957   -2.7641    0.0000 Cl  0  0  0  0  0  0  0  0  0  0  0  0
   13.5290   -4.2849    0.0000 Cl  0  0  0  0  0  0  0  0  0  0  0  0
   10.0649   -4.2849    0.0000 Cl  0  0  0  0  0  0  0  0  0  0  0  0
   11.7970   -7.2849    0.0000 Cl  0  0  0  0  0  0  0  0  0  0  0  0
    4.9677    1.0719    0.0000 O   0  0  0  0  0  0  0  0  0  0  0  0
    6.1433   -0.5461    0.0000 O   0  0  0  0  0  0  0  0  0  0  0  0
    2.6166    4.3080    0.0000 O   0  0  0  0  0  0  0  0  0  0  0  0
   13.5570   -3.0061    0.0000 O   0  0  0  0  0  0  0  0  0  0  0  0
   17.0439    0.3674    0.0000 O   0  0  0  0  0  0  0  0  0  0  0  0
   16.2304    2.1945    0.0000 O   0  0  0  0  0  0  0  0  0  0  0  0
    7.5446    0.4720    0.0000 N   0  0  0  0  0  0  0  0  0  0  0  0
   10.7092   -0.9370    0.0000 N   0  0  0  0  0  0  0  0  0  0  0  0
   11.7970   -3.2849    0.0000 N   0  0  0  0  0  0  0  0  0  0  0  0
   10.9880   -2.6971    0.0000 N   0  0  0  0  0  0  0  0  0  0  0  0
   12.8848   -0.9370    0.0000 N   0  0  0  0  0  0  0  0  0  0  0  0
   13.8793   -1.0416    0.0000 N   0  0  0  0  0  0  0  0  0  0  0  0
    8.7648    3.2126    0.0000 C   0  0  0  0  0  0  0  0  0  0  0  0
    9.1715    4.1261    0.0000 C   0  0  0  0  0  0  0  0  0  0  0  0
    7.7703    3.1081    0.0000 C   0  0  0  0  0  0  0  0  0  0  0  0
   10.1660    4.2307    0.0000 C   0  0  0  0  0  0  0  0  0  0  0  0
   10.5728    5.1442    0.0000 C   0  0  0  0  0  0  0  0  0  0  0  0
    7.3635    2.1945    0.0000 C   0  0  0  0  0  0  0  0  0  0  0  0
   11.5673    5.2487    0.0000 C   0  0  0  0  0  0  0  0  0  0  0  0
    6.3690    2.0900    0.0000 C   0  0  0  0  0  0  0  0  0  0  0  0
   11.9740    6.1623    0.0000 C   0  0  0  0  0  0  0  0  0  0  0  0
    5.9623    1.1764    0.0000 C   0  0  3  0  0  0  0  0  0  0  0  0
    4.6056    4.5170    0.0000 C   0  0  0  0  0  0  0  0  0  0  0  0
   12.9686    6.2668    0.0000 C   0  0  0  0  0  0  0  0  0  0  0  0
    4.1989    3.6035    0.0000 C   0  0  0  0  0  0  0  0  0  0  0  0
   13.3753    7.1804    0.0000 C   0  0  0  0  0  0  0  0  0  0  0  0
    6.5500    0.3674    0.0000 C   0  0  0  0  0  0  0  0  0  0  0  0
    4.3800    1.8809    0.0000 C   0  0  0  0  0  0  0  0  0  0  0  0
    5.0124    5.4306    0.0000 C   0  0  0  0  0  0  0  0  0  0  0  0
    3.6921    4.9238    0.0000 C   0  0  0  0  0  0  0  0  0  0  0  0
    5.5192    4.1103    0.0000 C   0  0  0  0  0  0  0  0  0  0  0  0
    4.7867    2.7945    0.0000 C   0  0  0  0  0  0  0  0  0  0  0  0
    3.2044    3.4990    0.0000 C   0  0  0  0  0  0  0  0  0  0  0  0
    3.3854    1.7764    0.0000 C   0  0  0  0  0  0  0  0  0  0  0  0
   14.3698    7.2849    0.0000 C   0  0  0  0  0  0  0  0  0  0  0  0
    2.7976    2.5854    0.0000 C   0  0  0  0  0  0  0  0  0  0  0  0
    8.1324   -0.3371    0.0000 C   0  0  0  0  0  0  0  0  0  0  0  0
    9.1269   -0.2325    0.0000 C   0  0  0  0  0  0  0  0  0  0  0  0
    7.7256   -1.2506    0.0000 C   0  0  0  0  0  0  0  0  0  0  0  0
    9.7147   -1.0416    0.0000 C   0  0  0  0  0  0  0  0  0  0  0  0
    8.3134   -2.0596    0.0000 C   0  0  0  0  0  0  0  0  0  0  0  0
    9.3079   -1.9551    0.0000 C   0  0  0  0  0  0  0  0  0  0  0  0
   11.2970   -1.7460    0.0000 C   0  0  0  0  0  0  0  0  0  0  0  0
   12.2970   -1.7460    0.0000 C   0  0  3  0  0  0  0  0  0  0  0  0
   12.6060   -2.6971    0.0000 C   0  0  0  0  0  0  0  0  0  0  0  0
   11.7970   -4.2849    0.0000 C   0  0  0  0  0  0  0  0  0  0  0  0
   12.6630   -4.7849    0.0000 C   0  0  0  0  0  0  0  0  0  0  0  0
   10.9309   -4.7849    0.0000 C   0  0  0  0  0  0  0  0  0  0  0  0
   12.6630   -5.7849    0.0000 C   0  0  0  0  0  0  0  0  0  0  0  0
   10.9309   -5.7849    0.0000 C   0  0  0  0  0  0  0  0  0  0  0  0
   11.7970   -6.2849    0.0000 C   0  0  0  0  0  0  0  0  0  0  0  0
   14.4671   -0.2325    0.0000 C   0  0  0  0  0  0  0  0  0  0  0  0
   15.4616   -0.3371    0.0000 C   0  0  0  0  0  0  0  0  0  0  0  0
   14.0603    0.6810    0.0000 C   0  0  0  0  0  0  0  0  0  0  0  0
   16.0494    0.4720    0.0000 C   0  0  0  0  0  0  0  0  0  0  0  0
   14.6481    1.4900    0.0000 C   0  0  0  0  0  0  0  0  0  0  0  0
   15.6426    1.3855    0.0000 C   0  0  0  0  0  0  0  0  0  0  0  0
   17.4506   -0.5461    0.0000 C   0  0  0  0  0  0  0  0  0  0  0  0
   15.8237    3.1081    0.0000 C   0  0  0  0  0  0  0  0  0  0  0  0
    8.7215    2.5941    0.0000 H   0  0  0  0  0  0  0  0  0  0  0  0
    9.3664    3.0626    0.0000 H   0  0  0  0  0  0  0  0  0  0  0  0
    9.2148    4.7446    0.0000 H   0  0  0  0  0  0  0  0  0  0  0  0
    8.5699    4.2761    0.0000 H   0  0  0  0  0  0  0  0  0  0  0  0
    7.8135    3.7266    0.0000 H   0  0  0  0  0  0  0  0  0  0  0  0
    7.1687    3.2580    0.0000 H   0  0  0  0  0  0  0  0  0  0  0  0
   10.1228    3.6122    0.0000 H   0  0  0  0  0  0  0  0  0  0  0  0
   10.7676    4.0807    0.0000 H   0  0  0  0  0  0  0  0  0  0  0  0
   10.6160    5.7627    0.0000 H   0  0  0  0  0  0  0  0  0  0  0  0
    9.9712    5.2942    0.0000 H   0  0  0  0  0  0  0  0  0  0  0  0
    7.3203    1.5760    0.0000 H   0  0  0  0  0  0  0  0  0  0  0  0
    7.9651    2.0445    0.0000 H   0  0  0  0  0  0  0  0  0  0  0  0
   11.5241    4.6302    0.0000 H   0  0  0  0  0  0  0  0  0  0  0  0
   12.1689    5.0987    0.0000 H   0  0  0  0  0  0  0  0  0  0  0  0
    6.4122    2.7085    0.0000 H   0  0  0  0  0  0  0  0  0  0  0  0
    5.7674    2.2400    0.0000 H   0  0  0  0  0  0  0  0  0  0  0  0
   12.0173    6.7808    0.0000 H   0  0  0  0  0  0  0  0  0  0  0  0
   11.3725    6.3123    0.0000 H   0  0  0  0  0  0  0  0  0  0  0  0
    5.5978    1.6780    0.0000 H   0  0  0  0  0  0  0  0  0  0  0  0
   12.9253    5.6483    0.0000 H   0  0  0  0  0  0  0  0  0  0  0  0
   13.5701    6.1168    0.0000 H   0  0  0  0  0  0  0  0  0  0  0  0
   13.4185    7.7988    0.0000 H   0  0  0  0  0  0  0  0  0  0  0  0
   12.7737    7.3304    0.0000 H   0  0  0  0  0  0  0  0  0  0  0  0
    5.5788    5.1784    0.0000 H   0  0  0  0  0  0  0  0  0  0  0  0
    5.2646    5.9970    0.0000 H   0  0  0  0  0  0  0  0  0  0  0  0
    4.4460    5.6828    0.0000 H   0  0  0  0  0  0  0  0  0  0  0  0
    3.9443    5.4902    0.0000 H   0  0  0  0  0  0  0  0  0  0  0  0
    3.1257    5.1760    0.0000 H   0  0  0  0  0  0  0  0  0  0  0  0
    3.4399    4.3574    0.0000 H   0  0  0  0  0  0  0  0  0  0  0  0
    5.2670    3.5439    0.0000 H   0  0  0  0  0  0  0  0  0  0  0  0
    6.0856    3.8581    0.0000 H   0  0  0  0  0  0  0  0  0  0  0  0
    5.7714    4.6767    0.0000 H   0  0  0  0  0  0  0  0  0  0  0  0
    5.4033    2.8593    0.0000 H   0  0  0  0  0  0  0  0  0  0  0  0
    3.1333    1.2100    0.0000 H   0  0  0  0  0  0  0  0  0  0  0  0
   14.4346    6.6683    0.0000 H   0  0  0  0  0  0  0  0  0  0  0  0
   14.9864    7.3497    0.0000 H   0  0  0  0  0  0  0  0  0  0  0  0
   14.3050    7.9015    0.0000 H   0  0  0  0  0  0  0  0  0  0  0  0
    2.1810    2.5206    0.0000 H   0  0  0  0  0  0  0  0  0  0  0  0
    7.7968    1.0384    0.0000 H   0  0  0  0  0  0  0  0  0  0  0  0
    2.0000    4.2432    0.0000 H   0  0  0  0  0  0  0  0  0  0  0  0
    9.3791    0.3339    0.0000 H   0  0  0  0  0  0  0  0  0  0  0  0
    7.1090   -1.3154    0.0000 H   0  0  0  0  0  0  0  0  0  0  0  0
    8.0612   -2.6260    0.0000 H   0  0  0  0  0  0  0  0  0  0  0  0
   10.9614   -0.3706    0.0000 H   0  0  0  0  0  0  0  0  0  0  0  0
   12.9093   -1.8430    0.0000 H   0  0  0  0  0  0  0  0  0  0  0  0
   13.1999   -6.0949    0.0000 H   0  0  0  0  0  0  0  0  0  0  0  0
   10.3940   -6.0949    0.0000 H   0  0  0  0  0  0  0  0  0  0  0  0
   15.7138   -0.9035    0.0000 H   0  0  0  0  0  0  0  0  0  0  0  0
   13.4437    0.7458    0.0000 H   0  0  0  0  0  0  0  0  0  0  0  0
   14.3959    2.0564    0.0000 H   0  0  0  0  0  0  0  0  0  0  0  0
   16.8842   -0.7983    0.0000 H   0  0  0  0  0  0  0  0  0  0  0  0
   17.7028   -1.1125    0.0000 H   0  0  0  0  0  0  0  0  0  0  0  0
   18.0170   -0.2939    0.0000 H   0  0  0  0  0  0  0  0  0  0  0  0
   16.3901    3.3602    0.0000 H   0  0  0  0  0  0  0  0  0  0  0  0
   15.5715    3.6745    0.0000 H   0  0  0  0  0  0  0  0  0  0  0  0
   15.2573    2.8559    0.0000 H   0  0  0  0  0  0  0  0  0  0  0  0
  1 46  1  0  0  0  0
  2 51  1  0  0  0  0
  3 52  1  0  0  0  0
  4 55  1  0  0  0  0
  5 26  1  0  0  0  0
  5 32  1  0  0  0  0
  6 31  2  0  0  0  0
  7 37  1  0  0  0  0
  7103  1  0  0  0  0
  8 49  2  0  0  0  0
  9 59  1  0  0  0  0
  9 62  1  0  0  0  0
 10 61  1  0  0  0  0
 10 63  1  0  0  0  0
 11 31  1  0  0  0  0
 11 41  1  0  0  0  0
 11102  1  0  0  0  0
 12 44  1  0  0  0  0
 12 47  1  0  0  0  0
 12107  1  0  0  0  0
 13 14  1  0  0  0  0
 13 49  1  0  0  0  0
 13 50  1  0  0  0  0
 14 47  2  0  0  0  0
 15 16  2  0  0  0  0
 15 48  1  0  0  0  0
 16 56  1  0  0  0  0
 17 18  1  0  0  0  0
 17 19  1  0  0  0  0
 17 64  1  0  0  0  0
 17 65  1  0  0  0  0
 18 20  1  0  0  0  0
 18 66  1  0  0  0  0
 18 67  1  0  0  0  0
 19 22  1  0  0  0  0
 19 68  1  0  0  0  0
 19 69  1  0  0  0  0
 20 21  1  0  0  0  0
 20 70  1  0  0  0  0
 20 71  1  0  0  0  0
 21 23  1  0  0  0  0
 21 72  1  0  0  0  0
 21 73  1  0  0  0  0
 22 24  1  0  0  0  0
 22 74  1  0  0  0  0
 22 75  1  0  0  0  0
 23 25  1  0  0  0  0
 23 76  1  0  0  0  0
 23 77  1  0  0  0  0
 24 26  1  0  0  0  0
 24 78  1  0  0  0  0
 24 79  1  0  0  0  0
 25 28  1  0  0  0  0
 25 80  1  0  0  0  0
 25 81  1  0  0  0  0
 26 31  1  0  0  0  0
 26 82  1  0  0  0  0
 27 29  1  0  0  0  0
 27 33  1  0  0  0  0
 27 34  1  0  0  0  0
 27 35  1  0  0  0  0
 28 30  1  0  0  0  0
 28 83  1  0  0  0  0
 28 84  1  0  0  0  0
 29 36  1  0  0  0  0
 29 37  2  0  0  0  0
 30 39  1  0  0  0  0
 30 85  1  0  0  0  0
 30 86  1  0  0  0  0
 32 36  2  0  0  0  0
 32 38  1  0  0  0  0
 33 87  1  0  0  0  0
 33 88  1  0  0  0  0
 33 89  1  0  0  0  0
 34 90  1  0  0  0  0
 34 91  1  0  0  0  0
 34 92  1  0  0  0  0
 35 93  1  0  0  0  0
 35 94  1  0  0  0  0
 35 95  1  0  0  0  0
 36 96  1  0  0  0  0
 37 40  1  0  0  0  0
 38 40  2  0  0  0  0
 38 97  1  0  0  0  0
 39 98  1  0  0  0  0
 39 99  1  0  0  0  0
 39100  1  0  0  0  0
 40101  1  0  0  0  0
 41 42  2  0  0  0  0
 41 43  1  0  0  0  0
 42 44  1  0  0  0  0
 42104  1  0  0  0  0
 43 45  2  0  0  0  0
 43105  1  0  0  0  0
 44 46  2  0  0  0  0
 45 46  1  0  0  0  0
 45106  1  0  0  0  0
 47 48  1  0  0  0  0
 48 49  1  0  0  0  0
 48108  1  0  0  0  0
 50 51  2  0  0  0  0
 50 52  1  0  0  0  0
 51 53  1  0  0  0  0
 52 54  2  0  0  0  0
 53 55  2  0  0  0  0
 53109  1  0  0  0  0
 54 55  1  0  0  0  0
 54110  1  0  0  0  0
 56 57  2  0  0  0  0
 56 58  1  0  0  0  0
 57 59  1  0  0  0  0
 57111  1  0  0  0  0
 58 60  2  0  0  0  0
 58112  1  0  0  0  0
 59 61  2  0  0  0  0
 60 61  1  0  0  0  0
 60113  1  0  0  0  0
 62114  1  0  0  0  0
 62115  1  0  0  0  0
 62116  1  0  0  0  0
 63117  1  0  0  0  0
 63118  1  0  0  0  0
 63119  1  0  0  0  0
M  END
> <PUBCHEM_COMPOUND_CID>
103350

> <PUBCHEM_COMPOUND_CANONICALIZED>
1

> <PUBCHEM_CACTVS_COMPLEXITY>
1460

> <PUBCHEM_CACTVS_HBOND_ACCEPTOR>
9

> <PUBCHEM_CACTVS_HBOND_DONOR>
3

> <PUBCHEM_CACTVS_ROTATABLE_BOND>
23

> <PUBCHEM_CACTVS_SUBSKEYS>
AAADcfB/uAAHAAAAAAAAAAAAAAAAAQAAAAAwYMGAAAAAAAABVAAAHgIYCAAADj7hmCYzxoLABgCqAidycAKSDAAhJwAbiAH27ogPZjrH+9/XeCrm3Bna+Af42PGPgUBBAgSIQBACgIIECRCAIAAAAAAAAA==

> <PUBCHEM_IUPAC_OPENEYE_NAME>
2-(3-tert-butyl-4-hydroxy-phenoxy)-N-[4-chloro-3-[[4-(3,4-dimethoxyphenyl)azo-5-oxo-1-(2,4,6-trichlorophenyl)-4H-pyrazol-3-yl]amino]phenyl]tetradecanamide

> <PUBCHEM_IUPAC_CAS_NAME>
2-(3-tert-butyl-4-hydroxyphenoxy)-N-[4-chloro-3-[[4-(3,4-dimethoxyphenyl)azo-5-oxo-1-(2,4,6-trichlorophenyl)-4H-pyrazol-3-yl]amino]phenyl]tetradecanamide

> <PUBCHEM_IUPAC_NAME_MARKUP>
2-(3-<I>tert</I>-butyl-4-hydroxyphenoxy)-<I>N</I>-[4-chloro-3-[[4-[(3,4-dimethoxyphenyl)diazenyl]-5-oxo-1-(2,4,6-trichlorophenyl)-4<I>H</I>-pyrazol-3-yl]amino]phenyl]tetradecanamide

> <PUBCHEM_IUPAC_NAME>
2-(3-tert-butyl-4-hydroxyphenoxy)-N-[4-chloro-3-[[4-[(3,4-dimethoxyphenyl)diazenyl]-5-oxo-1-(2,4,6-trichlorophenyl)-4H-pyrazol-3-yl]amino]phenyl]tetradecanamide

> <PUBCHEM_IUPAC_SYSTEMATIC_NAME>
2-(3-tert-butyl-4-oxidanyl-phenoxy)-N-[4-chloranyl-3-[[4-[(3,4-dimethoxyphenyl)diazenyl]-5-oxidanylidene-1-[2,4,6-tris(chloranyl)phenyl]-4H-pyrazol-3-yl]amino]phenyl]tetradecanamide

> <PUBCHEM_IUPAC_TRADITIONAL_NAME>
2-(3-tert-butyl-4-hydroxy-phenoxy)-N-[4-chloro-3-[[4-(3,4-dimethoxyphenyl)azo-5-keto-1-(2,4,6-trichlorophenyl)-2-pyrazolin-3-yl]amino]phenyl]myristamide

> <PUBCHEM_IUPAC_INCHI>
InChI=1S/C47H56Cl4N6O6/c1-7-8-9-10-11-12-13-14-15-16-17-40(63-32-20-22-38(58)33(28-32)47(2,3)4)45(59)52-30-18-21-34(49)37(26-30)53-44-42(55-54-31-19-23-39(61-5)41(27-31)62-6)46(60)57(56-44)43-35(50)24-29(48)25-36(43)51/h18-28,40,42,58H,7-17H2,1-6H3,(H,52,59)(H,53,56)

> <PUBCHEM_IUPAC_INCHIKEY>
XCUBBBXGENOKTJ-UHFFFAOYSA-N

> <PUBCHEM_XLOGP3_AA>
15.2

> <PUBCHEM_EXACT_MASS>
942.298594

> <PUBCHEM_MOLECULAR_FORMULA>
C47H56Cl4N6O6

> <PUBCHEM_MOLECULAR_WEIGHT>
942.8

> <PUBCHEM_SMILES>
CCCCCCCCCCCCC(C(=O)NC1=CC(=C(C=C1)Cl)NC2=NN(C(=O)C2N=NC3=CC(=C(C=C3)OC)OC)C4=C(C=C(C=C4Cl)Cl)Cl)OC5=CC(=C(C=C5)O)C(C)(C)C

> <PUBCHEM_CONNECTIVITY_SMILES>
CCCCCCCCCCCCC(C(=O)NC1=CC(=C(C=C1)Cl)NC2=NN(C(=O)C2N=NC3=CC(=C(C=C3)OC)OC)C4=C(C=C(C=C4Cl)Cl)Cl)OC5=CC(=C(C=C5)O)C(C)(C)C

> <PUBCHEM_CACTVS_TPSA>
146

> <PUBCHEM_MONOISOTOPIC_WEIGHT>
940.301544

> <PUBCHEM_TOTAL_CHARGE>
0

> <PUBCHEM_HEAVY_ATOM_COUNT>
63

> <PUBCHEM_ATOM_DEF_STEREO_COUNT>
0

> <PUBCHEM_ATOM_UDEF_STEREO_COUNT>
2

> <PUBCHEM_BOND_DEF_STEREO_COUNT>
0

> <PUBCHEM_BOND_UDEF_STEREO_COUNT>
0

> <PUBCHEM_ISOTOPIC_ATOM_COUNT>
0

> <PUBCHEM_COMPONENT_COUNT>
1

> <PUBCHEM_CACTVS_TAUTO_COUNT>
-1

> <PUBCHEM_COORDINATE_TYPE>
1
5
255

> <PUBCHEM_BONDANNOTATIONS>
48  15  3
26  24  3
29  36  8
29  37  8
32  36  8
32  38  8
37  40  8
38  40  8
41  42  8
41  43  8
42  44  8
43  45  8
44  46  8
45  46  8
50  51  8
50  52  8
51  53  8
52  54  8
53  55  8
54  55  8
56  57  8
56  58  8
57  59  8
58  60  8
59  61  8
60  61  8

$$$$
