112600
  -OEChem-11142516422D

101103  0     1  0  0  0  0  0999 V2000
    0.0000    6.8069    0.0000 Cl  0  0  0  0  0  0  0  0  0  0  0  0
    0.0000    4.8069    0.0000 Cl  0  0  0  0  0  0  0  0  0  0  0  0
   10.0579    1.0000    0.0000 Cl  0  0  0  0  0  0  0  0  0  0  0  0
    8.3258    0.0000    0.0000 Cl  0  0  0  0  0  0  0  0  0  0  0  0
    6.1226    8.9251    0.0000 S   0  0  0  0  0  0  0  0  0  0  0  0
   11.4093    5.0480    0.0000 S   0  0  0  0  0  0  0  0  0  0  0  0
    7.1011    9.1314    0.0000 O   0  0  0  0  0  0  0  0  0  0  0  0
    5.9164    9.9036    0.0000 O   0  0  0  0  0  0  0  0  0  0  0  0
    6.3289    7.9466    0.0000 O   0  0  0  0  0  0  0  0  0  0  0  0
   12.3878    4.8418    0.0000 O   0  5  0  0  0  0  0  0  0  0  0  0
   11.6155    6.0265    0.0000 O   0  0  0  0  0  0  0  0  0  0  0  0
   11.2031    4.0695    0.0000 O   0  0  0  0  0  0  0  0  0  0  0  0
    3.5443    6.6117    0.0000 N   0  0  0  0  0  0  0  0  0  0  0  0
    8.1166    3.9718    0.0000 N   0  3  0  0  0  0  0  0  0  0  0  0
    3.5443    5.0022    0.0000 N   0  0  0  0  0  0  0  0  0  0  0  0
    6.7228    3.1671    0.0000 N   0  0  0  0  0  0  0  0  0  0  0  0
    6.1939   13.9599    0.0000 N   0  0  0  0  0  0  0  0  0  0  0  0
    3.8550    7.5622    0.0000 C   0  0  0  0  0  0  0  0  0  0  0  0
    8.7845    4.7161    0.0000 C   0  0  0  0  0  0  0  0  0  0  0  0
    4.1279    5.8069    0.0000 C   0  0  0  0  0  0  0  0  0  0  0  0
    7.1279    4.0749    0.0000 C   0  0  0  0  0  0  0  0  0  0  0  0
    4.8335    7.7684    0.0000 C   0  0  0  0  0  0  0  0  0  0  0  0
    2.5981    6.3069    0.0000 C   0  0  0  0  0  0  0  0  0  0  0  0
    8.3258    3.0000    0.0000 C   0  0  0  0  0  0  0  0  0  0  0  0
    9.7630    4.5099    0.0000 C   0  0  0  0  0  0  0  0  0  0  0  0
    2.5981    5.3069    0.0000 C   0  0  0  0  0  0  0  0  0  0  0  0
    7.4598    2.5000    0.0000 C   0  0  0  0  0  0  0  0  0  0  0  0
    5.1441    8.7189    0.0000 C   0  0  3  0  0  0  0  0  0  0  0  0
   10.4308    5.2542    0.0000 C   0  0  3  0  0  0  0  0  0  0  0  0
    3.8550    4.0517    0.0000 C   0  0  0  0  0  0  0  0  0  0  0  0
    5.7443    2.9609    0.0000 C   0  0  0  0  0  0  0  0  0  0  0  0
    5.1279    5.8069    0.0000 C   0  0  0  0  0  0  0  0  0  0  0  0
    6.6279    4.9409    0.0000 C   0  0  0  0  0  0  0  0  0  0  0  0
    1.7321    6.8069    0.0000 C   0  0  0  0  0  0  0  0  0  0  0  0
    9.1919    2.5000    0.0000 C   0  0  0  0  0  0  0  0  0  0  0  0
    1.7321    4.8069    0.0000 C   0  0  0  0  0  0  0  0  0  0  0  0
    5.6279    4.9409    0.0000 C   0  0  0  0  0  0  0  0  0  0  0  0
    7.4598    1.5000    0.0000 C   0  0  0  0  0  0  0  0  0  0  0  0
    4.4763    9.4632    0.0000 C   0  0  0  0  0  0  0  0  0  0  0  0
   10.1202    6.2047    0.0000 C   0  0  0  0  0  0  0  0  0  0  0  0
    3.1871    3.3074    0.0000 C   0  0  0  0  0  0  0  0  0  0  0  0
    0.8660    6.3069    0.0000 C   0  0  0  0  0  0  0  0  0  0  0  0
    5.4336    2.0104    0.0000 C   0  0  0  0  0  0  0  0  0  0  0  0
    0.8660    5.3069    0.0000 C   0  0  0  0  0  0  0  0  0  0  0  0
    9.1919    1.5000    0.0000 C   0  0  0  0  0  0  0  0  0  0  0  0
    8.3258    1.0000    0.0000 C   0  0  0  0  0  0  0  0  0  0  0  0
    7.0599   14.4599    0.0000 C   0  0  0  0  0  0  0  0  0  0  0  0
    5.3279   14.4599    0.0000 C   0  0  0  0  0  0  0  0  0  0  0  0
    6.1939   12.9599    0.0000 C   0  0  0  0  0  0  0  0  0  0  0  0
    7.9260   13.9599    0.0000 C   0  0  0  0  0  0  0  0  0  0  0  0
    4.4619   13.9599    0.0000 C   0  0  0  0  0  0  0  0  0  0  0  0
    5.3279   12.4599    0.0000 C   0  0  0  0  0  0  0  0  0  0  0  0
    3.8344    8.1818    0.0000 H   0  0  0  0  0  0  0  0  0  0  0  0
    3.2411    7.6495    0.0000 H   0  0  0  0  0  0  0  0  0  0  0  0
    9.0157    5.2914    0.0000 H   0  0  0  0  0  0  0  0  0  0  0  0
    8.2581    5.0438    0.0000 H   0  0  0  0  0  0  0  0  0  0  0  0
    4.8540    7.1487    0.0000 H   0  0  0  0  0  0  0  0  0  0  0  0
    5.4473    7.6810    0.0000 H   0  0  0  0  0  0  0  0  0  0  0  0
    9.5317    3.9346    0.0000 H   0  0  0  0  0  0  0  0  0  0  0  0
   10.2893    4.1823    0.0000 H   0  0  0  0  0  0  0  0  0  0  0  0
    5.3367    9.3082    0.0000 H   0  0  0  0  0  0  0  0  0  0  0  0
   10.8449    5.7157    0.0000 H   0  0  0  0  0  0  0  0  0  0  0  0
    4.2375    3.5638    0.0000 H   0  0  0  0  0  0  0  0  0  0  0  0
    4.4019    4.3437    0.0000 H   0  0  0  0  0  0  0  0  0  0  0  0
    5.7237    3.5805    0.0000 H   0  0  0  0  0  0  0  0  0  0  0  0
    5.1305    3.0482    0.0000 H   0  0  0  0  0  0  0  0  0  0  0  0
    5.4379    6.3439    0.0000 H   0  0  0  0  0  0  0  0  0  0  0  0
    6.9379    5.4778    0.0000 H   0  0  0  0  0  0  0  0  0  0  0  0
    1.7321    7.4269    0.0000 H   0  0  0  0  0  0  0  0  0  0  0  0
    9.7288    2.8100    0.0000 H   0  0  0  0  0  0  0  0  0  0  0  0
    1.7321    4.1869    0.0000 H   0  0  0  0  0  0  0  0  0  0  0  0
    5.3179    4.4040    0.0000 H   0  0  0  0  0  0  0  0  0  0  0  0
    6.9229    1.1900    0.0000 H   0  0  0  0  0  0  0  0  0  0  0  0
    4.9378    9.8773    0.0000 H   0  0  0  0  0  0  0  0  0  0  0  0
    4.0622    9.9247    0.0000 H   0  0  0  0  0  0  0  0  0  0  0  0
    4.0148    9.0492    0.0000 H   0  0  0  0  0  0  0  0  0  0  0  0
   10.7095    6.3973    0.0000 H   0  0  0  0  0  0  0  0  0  0  0  0
    9.9276    6.7940    0.0000 H   0  0  0  0  0  0  0  0  0  0  0  0
    9.5308    6.0121    0.0000 H   0  0  0  0  0  0  0  0  0  0  0  0
    2.7257    3.7214    0.0000 H   0  0  0  0  0  0  0  0  0  0  0  0
    2.7731    2.8459    0.0000 H   0  0  0  0  0  0  0  0  0  0  0  0
    3.6486    2.8933    0.0000 H   0  0  0  0  0  0  0  0  0  0  0  0
    4.8443    2.2030    0.0000 H   0  0  0  0  0  0  0  0  0  0  0  0
    5.2410    1.4210    0.0000 H   0  0  0  0  0  0  0  0  0  0  0  0
    6.0230    1.8177    0.0000 H   0  0  0  0  0  0  0  0  0  0  0  0
    7.2938    9.7207    0.0000 H   0  0  0  0  0  0  0  0  0  0  0  0
    7.4585   14.9348    0.0000 H   0  0  0  0  0  0  0  0  0  0  0  0
    6.6614   14.9348    0.0000 H   0  0  0  0  0  0  0  0  0  0  0  0
    5.7264   14.9348    0.0000 H   0  0  0  0  0  0  0  0  0  0  0  0
    4.9294   14.9348    0.0000 H   0  0  0  0  0  0  0  0  0  0  0  0
    6.4060   12.3773    0.0000 H   0  0  0  0  0  0  0  0  0  0  0  0
    6.8045   13.0675    0.0000 H   0  0  0  0  0  0  0  0  0  0  0  0
    7.6160   13.4229    0.0000 H   0  0  0  0  0  0  0  0  0  0  0  0
    8.4629   13.6499    0.0000 H   0  0  0  0  0  0  0  0  0  0  0  0
    8.2360   14.4968    0.0000 H   0  0  0  0  0  0  0  0  0  0  0  0
    4.1519   14.4968    0.0000 H   0  0  0  0  0  0  0  0  0  0  0  0
    3.9249   13.6499    0.0000 H   0  0  0  0  0  0  0  0  0  0  0  0
    4.7719   13.4229    0.0000 H   0  0  0  0  0  0  0  0  0  0  0  0
    5.0179   12.9968    0.0000 H   0  0  0  0  0  0  0  0  0  0  0  0
    4.7910   12.1499    0.0000 H   0  0  0  0  0  0  0  0  0  0  0  0
    5.6379   11.9229    0.0000 H   0  0  0  0  0  0  0  0  0  0  0  0
  1 42  1  0  0  0  0
  2 44  1  0  0  0  0
  3 45  1  0  0  0  0
  4 46  1  0  0  0  0
  5  7  1  0  0  0  0
  5  8  2  0  0  0  0
  5  9  2  0  0  0  0
  5 28  1  0  0  0  0
  6 10  1  0  0  0  0
  6 11  2  0  0  0  0
  6 12  2  0  0  0  0
  6 29  1  0  0  0  0
  7 86  1  0  0  0  0
 13 18  1  0  0  0  0
 13 20  1  0  0  0  0
 13 23  1  0  0  0  0
 14 19  1  0  0  0  0
 14 21  2  0  0  0  0
 14 24  1  0  0  0  0
 15 20  1  0  0  0  0
 15 26  1  0  0  0  0
 15 30  1  0  0  0  0
 16 21  1  0  0  0  0
 16 27  1  0  0  0  0
 16 31  1  0  0  0  0
 17 47  1  0  0  0  0
 17 48  1  0  0  0  0
 17 49  1  0  0  0  0
 18 22  1  0  0  0  0
 18 53  1  0  0  0  0
 18 54  1  0  0  0  0
 19 25  1  0  0  0  0
 19 55  1  0  0  0  0
 19 56  1  0  0  0  0
 20 32  2  3  0  0  0
 21 33  1  0  0  0  0
 22 28  1  0  0  0  0
 22 57  1  0  0  0  0
 22 58  1  0  0  0  0
 23 26  1  0  0  0  0
 23 34  2  0  0  0  0
 24 27  1  0  0  0  0
 24 35  2  0  0  0  0
 25 29  1  0  0  0  0
 25 59  1  0  0  0  0
 25 60  1  0  0  0  0
 26 36  2  0  0  0  0
 27 38  2  0  0  0  0
 28 39  1  0  0  0  0
 28 61  1  0  0  0  0
 29 40  1  0  0  0  0
 29 62  1  0  0  0  0
 30 41  1  0  0  0  0
 30 63  1  0  0  0  0
 30 64  1  0  0  0  0
 31 43  1  0  0  0  0
 31 65  1  0  0  0  0
 31 66  1  0  0  0  0
 32 37  1  0  0  0  0
 32 67  1  0  0  0  0
 33 37  2  3  0  0  0
 33 68  1  0  0  0  0
 34 42  1  0  0  0  0
 34 69  1  0  0  0  0
 35 45  1  0  0  0  0
 35 70  1  0  0  0  0
 36 44  1  0  0  0  0
 36 71  1  0  0  0  0
 37 72  1  0  0  0  0
 38 46  1  0  0  0  0
 38 73  1  0  0  0  0
 39 74  1  0  0  0  0
 39 75  1  0  0  0  0
 39 76  1  0  0  0  0
 40 77  1  0  0  0  0
 40 78  1  0  0  0  0
 40 79  1  0  0  0  0
 41 80  1  0  0  0  0
 41 81  1  0  0  0  0
 41 82  1  0  0  0  0
 42 44  2  0  0  0  0
 43 83  1  0  0  0  0
 43 84  1  0  0  0  0
 43 85  1  0  0  0  0
 45 46  2  0  0  0  0
 47 50  1  0  0  0  0
 47 87  1  0  0  0  0
 47 88  1  0  0  0  0
 48 51  1  0  0  0  0
 48 89  1  0  0  0  0
 48 90  1  0  0  0  0
 49 52  1  0  0  0  0
 49 91  1  0  0  0  0
 49 92  1  0  0  0  0
 50 93  1  0  0  0  0
 50 94  1  0  0  0  0
 50 95  1  0  0  0  0
 51 96  1  0  0  0  0
 51 97  1  0  0  0  0
 51 98  1  0  0  0  0
 52 99  1  0  0  0  0
 52100  1  0  0  0  0
 52101  1  0  0  0  0
M  CHG  2  10  -1  14   1
M  END
> <PUBCHEM_COMPOUND_CID>
112600

> <PUBCHEM_COMPOUND_CANONICALIZED>
1

> <PUBCHEM_CACTVS_COMPLEXITY>
1310

> <PUBCHEM_CACTVS_HBOND_ACCEPTOR>
9

> <PUBCHEM_CACTVS_HBOND_DONOR>
1

> <PUBCHEM_CACTVS_ROTATABLE_BOND>
14

> <PUBCHEM_CACTVS_SUBSKEYS>
AAADcfB/uABnAAAAAAAAAAAAAAAAAWLAAAAwYAAAAAAAAFgB9AAAHAYACAAACArFVySz0LcMEIKgASZiZHDCgC0hF6AJ2mA4dpiIaKLBm5GUIAhogALIyCcQAAAAAABAAAIAACQAAIAABAAASAAAAAAAAA==

> <PUBCHEM_IUPAC_OPENEYE_NAME>
4-[5,6-dichloro-2-[3-[5,6-dichloro-1-ethyl-3-(3-sulfobutyl)benzimidazol-2-ylidene]prop-1-enyl]-3-ethyl-benzimidazol-1-ium-1-yl]butane-2-sulfonate;N,N-diethylethanamine

> <PUBCHEM_IUPAC_CAS_NAME>
4-[5,6-dichloro-2-[3-[5,6-dichloro-1-ethyl-3-(3-sulfobutyl)-2-benzimidazolylidene]prop-1-enyl]-3-ethyl-1-benzimidazol-1-iumyl]-2-butanesulfonate;N,N-diethylethanamine

> <PUBCHEM_IUPAC_NAME_MARKUP>
4-[5,6-dichloro-2-[3-[5,6-dichloro-1-ethyl-3-(3-sulfobutyl)benzimidazol-2-ylidene]prop-1-enyl]-3-ethylbenzimidazol-1-ium-1-yl]butane-2-sulfonate;<I>N</I>,<I>N</I>-diethylethanamine

> <PUBCHEM_IUPAC_NAME>
4-[5,6-dichloro-2-[3-[5,6-dichloro-1-ethyl-3-(3-sulfobutyl)benzimidazol-2-ylidene]prop-1-enyl]-3-ethylbenzimidazol-1-ium-1-yl]butane-2-sulfonate;N,N-diethylethanamine

> <PUBCHEM_IUPAC_SYSTEMATIC_NAME>
4-[2-[3-[5,6-bis(chloranyl)-1-ethyl-3-(3-sulfobutyl)benzimidazol-2-ylidene]prop-1-enyl]-5,6-bis(chloranyl)-3-ethyl-benzimidazol-1-ium-1-yl]butane-2-sulfonate;N,N-diethylethanamine

> <PUBCHEM_IUPAC_TRADITIONAL_NAME>
4-[5,6-dichloro-2-[3-[5,6-dichloro-1-ethyl-3-(3-sulfobutyl)benzimidazol-2-ylidene]prop-1-enyl]-3-ethyl-benzimidazol-1-ium-1-yl]butane-2-sulfonate;triethylamine

> <PUBCHEM_IUPAC_INCHI>
InChI=1S/C29H34Cl4N4O6S2.C6H15N/c1-5-34-24-14-20(30)22(32)16-26(24)36(12-10-18(3)44(38,39)40)28(34)8-7-9-29-35(6-2)25-15-21(31)23(33)17-27(25)37(29)13-11-19(4)45(41,42)43;1-4-7(5-2)6-3/h7-9,14-19H,5-6,10-13H2,1-4H3,(H-,38,39,40,41,42,43);4-6H2,1-3H3

> <PUBCHEM_IUPAC_INCHIKEY>
GJBYYQWPGHLDGU-UHFFFAOYSA-N

> <PUBCHEM_EXACT_MASS>
841.184887

> <PUBCHEM_MOLECULAR_FORMULA>
C35H49Cl4N5O6S2

> <PUBCHEM_MOLECULAR_WEIGHT>
841.7

> <PUBCHEM_SMILES>
CCN1C2=CC(=C(C=C2[N+](=C1C=CC=C3N(C4=CC(=C(C=C4N3CCC(C)S(=O)(=O)O)Cl)Cl)CC)CCC(C)S(=O)(=O)[O-])Cl)Cl.CCN(CC)CC

> <PUBCHEM_CONNECTIVITY_SMILES>
CCN1C2=CC(=C(C=C2[N+](=C1C=CC=C3N(C4=CC(=C(C=C4N3CCC(C)S(=O)(=O)O)Cl)Cl)CC)CCC(C)S(=O)(=O)[O-])Cl)Cl.CCN(CC)CC

> <PUBCHEM_CACTVS_TPSA>
147

> <PUBCHEM_MONOISOTOPIC_WEIGHT>
839.187837

> <PUBCHEM_TOTAL_CHARGE>
0

> <PUBCHEM_HEAVY_ATOM_COUNT>
52

> <PUBCHEM_ATOM_DEF_STEREO_COUNT>
0

> <PUBCHEM_ATOM_UDEF_STEREO_COUNT>
2

> <PUBCHEM_BOND_DEF_STEREO_COUNT>
0

> <PUBCHEM_BOND_UDEF_STEREO_COUNT>
2

> <PUBCHEM_ISOTOPIC_ATOM_COUNT>
0

> <PUBCHEM_COMPONENT_COUNT>
2

> <PUBCHEM_CACTVS_TAUTO_COUNT>
-1

> <PUBCHEM_COORDINATE_TYPE>
1
5
255

> <PUBCHEM_BONDANNOTATIONS>
14  21  8
14  24  8
16  21  8
16  27  8
20  32  1
23  26  8
23  34  8
24  27  8
24  35  8
26  36  8
27  38  8
28  39  3
29  40  3
33  37  1
34  42  8
35  45  8
36  44  8
38  46  8
42  44  8
45  46  8

$$$$
