105500
  -OEChem-11142516422D

176174  0     0  0  0  0  0  0999 V2000
   21.0531    0.8660    0.0000 S   0  0  0  0  0  0  0  0  0  0  0  0
   18.7235    7.1720    0.0000 O   0  0  0  0  0  0  0  0  0  0  0  0
   25.6517    5.1720    0.0000 O   0  0  0  0  0  0  0  0  0  0  0  0
   21.9191    1.3660    0.0000 O   0  0  0  0  0  0  0  0  0  0  0  0
   20.1871    0.3660    0.0000 O   0  5  0  0  0  0  0  0  0  0  0  0
   20.5531    1.7321    0.0000 O   0  0  0  0  0  0  0  0  0  0  0  0
   21.5531    0.0000    0.0000 O   0  0  0  0  0  0  0  0  0  0  0  0
   22.1876    6.1720    0.0000 N   0  3  0  0  0  0  0  0  0  0  0  0
   19.5895    5.6720    0.0000 N   0  0  0  0  0  0  0  0  0  0  0  0
   24.7856    6.6720    0.0000 N   0  0  0  0  0  0  0  0  0  0  0  0
   21.1876    9.6361    0.0000 N   0  0  0  0  0  0  0  0  0  0  0  0
   21.3215    5.6720    0.0000 C   0  0  0  0  0  0  0  0  0  0  0  0
   23.0536    6.6720    0.0000 C   0  0  0  0  0  0  0  0  0  0  0  0
   21.6876    7.0380    0.0000 C   0  0  0  0  0  0  0  0  0  0  0  0
   22.6876    5.3059    0.0000 C   0  0  0  0  0  0  0  0  0  0  0  0
   20.4555    6.1720    0.0000 C   0  0  0  0  0  0  0  0  0  0  0  0
   23.9196    6.1720    0.0000 C   0  0  0  0  0  0  0  0  0  0  0  0
   22.1876    7.9040    0.0000 C   0  0  0  0  0  0  0  0  0  0  0  0
   22.1876    4.4399    0.0000 C   0  0  0  0  0  0  0  0  0  0  0  0
   21.6876    8.7700    0.0000 C   0  0  0  0  0  0  0  0  0  0  0  0
   18.7235    6.1720    0.0000 C   0  0  0  0  0  0  0  0  0  0  0  0
   25.6517    6.1720    0.0000 C   0  0  0  0  0  0  0  0  0  0  0  0
   17.8574    5.6720    0.0000 C   0  0  0  0  0  0  0  0  0  0  0  0
   26.5177    6.6720    0.0000 C   0  0  0  0  0  0  0  0  0  0  0  0
   16.9914    6.1720    0.0000 C   0  0  0  0  0  0  0  0  0  0  0  0
   27.3837    6.1720    0.0000 C   0  0  0  0  0  0  0  0  0  0  0  0
   16.1254    5.6720    0.0000 C   0  0  0  0  0  0  0  0  0  0  0  0
   28.2497    6.6720    0.0000 C   0  0  0  0  0  0  0  0  0  0  0  0
   15.2594    6.1720    0.0000 C   0  0  0  0  0  0  0  0  0  0  0  0
   29.1158    6.1720    0.0000 C   0  0  0  0  0  0  0  0  0  0  0  0
   14.3933    5.6720    0.0000 C   0  0  0  0  0  0  0  0  0  0  0  0
   29.9818    6.6720    0.0000 C   0  0  0  0  0  0  0  0  0  0  0  0
   13.5273    6.1720    0.0000 C   0  0  0  0  0  0  0  0  0  0  0  0
   30.8478    6.1720    0.0000 C   0  0  0  0  0  0  0  0  0  0  0  0
   12.6613    5.6720    0.0000 C   0  0  0  0  0  0  0  0  0  0  0  0
   31.7139    6.6720    0.0000 C   0  0  0  0  0  0  0  0  0  0  0  0
   11.7953    6.1720    0.0000 C   0  0  0  0  0  0  0  0  0  0  0  0
   32.5799    6.1720    0.0000 C   0  0  0  0  0  0  0  0  0  0  0  0
   10.9292    5.6720    0.0000 C   0  0  0  0  0  0  0  0  0  0  0  0
   33.4459    6.6720    0.0000 C   0  0  0  0  0  0  0  0  0  0  0  0
   10.0632    6.1720    0.0000 C   0  0  0  0  0  0  0  0  0  0  0  0
   34.3119    6.1720    0.0000 C   0  0  0  0  0  0  0  0  0  0  0  0
    9.1972    5.6720    0.0000 C   0  0  0  0  0  0  0  0  0  0  0  0
   35.1780    6.6720    0.0000 C   0  0  0  0  0  0  0  0  0  0  0  0
    8.3312    6.1720    0.0000 C   0  0  0  0  0  0  0  0  0  0  0  0
   36.0440    6.1720    0.0000 C   0  0  0  0  0  0  0  0  0  0  0  0
    7.4651    5.6720    0.0000 C   0  0  0  0  0  0  0  0  0  0  0  0
   36.9100    6.6720    0.0000 C   0  0  0  0  0  0  0  0  0  0  0  0
    6.5991    6.1720    0.0000 C   0  0  0  0  0  0  0  0  0  0  0  0
   37.7760    6.1720    0.0000 C   0  0  0  0  0  0  0  0  0  0  0  0
    5.7331    5.6720    0.0000 C   0  0  0  0  0  0  0  0  0  0  0  0
   38.6421    6.6720    0.0000 C   0  0  0  0  0  0  0  0  0  0  0  0
    4.8671    6.1720    0.0000 C   0  0  0  0  0  0  0  0  0  0  0  0
   39.5081    6.1720    0.0000 C   0  0  0  0  0  0  0  0  0  0  0  0
    4.0010    5.6720    0.0000 C   0  0  0  0  0  0  0  0  0  0  0  0
   40.3741    6.6720    0.0000 C   0  0  0  0  0  0  0  0  0  0  0  0
    3.1350    6.1720    0.0000 C   0  0  0  0  0  0  0  0  0  0  0  0
   41.2401    6.1720    0.0000 C   0  0  0  0  0  0  0  0  0  0  0  0
    2.2690    5.6720    0.0000 C   0  0  0  0  0  0  0  0  0  0  0  0
   42.1062    6.6720    0.0000 C   0  0  0  0  0  0  0  0  0  0  0  0
    1.4030    6.1720    0.0000 C   0  0  0  0  0  0  0  0  0  0  0  0
   42.9722    6.1720    0.0000 C   0  0  0  0  0  0  0  0  0  0  0  0
    0.5369    5.6720    0.0000 C   0  0  0  0  0  0  0  0  0  0  0  0
   43.8382    6.6720    0.0000 C   0  0  0  0  0  0  0  0  0  0  0  0
   22.7851    0.8660    0.0000 C   0  0  0  0  0  0  0  0  0  0  0  0
   23.6512    1.3660    0.0000 C   0  0  0  0  0  0  0  0  0  0  0  0
   20.9230    5.1970    0.0000 H   0  0  0  0  0  0  0  0  0  0  0  0
   21.7201    5.1970    0.0000 H   0  0  0  0  0  0  0  0  0  0  0  0
   23.4521    7.1469    0.0000 H   0  0  0  0  0  0  0  0  0  0  0  0
   22.6551    7.1469    0.0000 H   0  0  0  0  0  0  0  0  0  0  0  0
   21.2126    7.4365    0.0000 H   0  0  0  0  0  0  0  0  0  0  0  0
   21.2126    6.6394    0.0000 H   0  0  0  0  0  0  0  0  0  0  0  0
   23.1625    4.9074    0.0000 H   0  0  0  0  0  0  0  0  0  0  0  0
   23.1625    5.7045    0.0000 H   0  0  0  0  0  0  0  0  0  0  0  0
   20.8540    6.6469    0.0000 H   0  0  0  0  0  0  0  0  0  0  0  0
   20.0570    6.6469    0.0000 H   0  0  0  0  0  0  0  0  0  0  0  0
   23.5211    5.6970    0.0000 H   0  0  0  0  0  0  0  0  0  0  0  0
   24.3182    5.6970    0.0000 H   0  0  0  0  0  0  0  0  0  0  0  0
   22.6625    7.5055    0.0000 H   0  0  0  0  0  0  0  0  0  0  0  0
   22.6625    8.3025    0.0000 H   0  0  0  0  0  0  0  0  0  0  0  0
   21.6506    4.7499    0.0000 H   0  0  0  0  0  0  0  0  0  0  0  0
   21.8776    3.9030    0.0000 H   0  0  0  0  0  0  0  0  0  0  0  0
   22.7245    4.1299    0.0000 H   0  0  0  0  0  0  0  0  0  0  0  0
   19.5895    5.0520    0.0000 H   0  0  0  0  0  0  0  0  0  0  0  0
   24.7856    7.2920    0.0000 H   0  0  0  0  0  0  0  0  0  0  0  0
   17.4589    5.1970    0.0000 H   0  0  0  0  0  0  0  0  0  0  0  0
   18.2560    5.1970    0.0000 H   0  0  0  0  0  0  0  0  0  0  0  0
   26.9162    7.1469    0.0000 H   0  0  0  0  0  0  0  0  0  0  0  0
   26.1192    7.1469    0.0000 H   0  0  0  0  0  0  0  0  0  0  0  0
   17.3899    6.6469    0.0000 H   0  0  0  0  0  0  0  0  0  0  0  0
   16.5929    6.6469    0.0000 H   0  0  0  0  0  0  0  0  0  0  0  0
   26.9852    5.6970    0.0000 H   0  0  0  0  0  0  0  0  0  0  0  0
   27.7823    5.6970    0.0000 H   0  0  0  0  0  0  0  0  0  0  0  0
   15.7269    5.1970    0.0000 H   0  0  0  0  0  0  0  0  0  0  0  0
   16.5239    5.1970    0.0000 H   0  0  0  0  0  0  0  0  0  0  0  0
   28.6483    7.1469    0.0000 H   0  0  0  0  0  0  0  0  0  0  0  0
   27.8512    7.1469    0.0000 H   0  0  0  0  0  0  0  0  0  0  0  0
   15.6579    6.6469    0.0000 H   0  0  0  0  0  0  0  0  0  0  0  0
   14.8608    6.6469    0.0000 H   0  0  0  0  0  0  0  0  0  0  0  0
   28.7172    5.6970    0.0000 H   0  0  0  0  0  0  0  0  0  0  0  0
   29.5143    5.6970    0.0000 H   0  0  0  0  0  0  0  0  0  0  0  0
   13.9948    5.1970    0.0000 H   0  0  0  0  0  0  0  0  0  0  0  0
   14.7919    5.1970    0.0000 H   0  0  0  0  0  0  0  0  0  0  0  0
   30.3803    7.1469    0.0000 H   0  0  0  0  0  0  0  0  0  0  0  0
   29.5833    7.1469    0.0000 H   0  0  0  0  0  0  0  0  0  0  0  0
   13.9258    6.6469    0.0000 H   0  0  0  0  0  0  0  0  0  0  0  0
   13.1288    6.6469    0.0000 H   0  0  0  0  0  0  0  0  0  0  0  0
   30.4493    5.6970    0.0000 H   0  0  0  0  0  0  0  0  0  0  0  0
   31.2464    5.6970    0.0000 H   0  0  0  0  0  0  0  0  0  0  0  0
   12.2628    5.1970    0.0000 H   0  0  0  0  0  0  0  0  0  0  0  0
   13.0598    5.1970    0.0000 H   0  0  0  0  0  0  0  0  0  0  0  0
   32.1124    7.1469    0.0000 H   0  0  0  0  0  0  0  0  0  0  0  0
   31.3153    7.1469    0.0000 H   0  0  0  0  0  0  0  0  0  0  0  0
   12.1938    6.6469    0.0000 H   0  0  0  0  0  0  0  0  0  0  0  0
   11.3967    6.6469    0.0000 H   0  0  0  0  0  0  0  0  0  0  0  0
   32.1813    5.6970    0.0000 H   0  0  0  0  0  0  0  0  0  0  0  0
   32.9784    5.6970    0.0000 H   0  0  0  0  0  0  0  0  0  0  0  0
   10.5307    5.1970    0.0000 H   0  0  0  0  0  0  0  0  0  0  0  0
   11.3278    5.1970    0.0000 H   0  0  0  0  0  0  0  0  0  0  0  0
   33.8444    7.1469    0.0000 H   0  0  0  0  0  0  0  0  0  0  0  0
   33.0474    7.1469    0.0000 H   0  0  0  0  0  0  0  0  0  0  0  0
   10.4617    6.6469    0.0000 H   0  0  0  0  0  0  0  0  0  0  0  0
    9.6647    6.6469    0.0000 H   0  0  0  0  0  0  0  0  0  0  0  0
   33.9134    5.6970    0.0000 H   0  0  0  0  0  0  0  0  0  0  0  0
   34.7105    5.6970    0.0000 H   0  0  0  0  0  0  0  0  0  0  0  0
    8.7987    5.1970    0.0000 H   0  0  0  0  0  0  0  0  0  0  0  0
    9.5957    5.1970    0.0000 H   0  0  0  0  0  0  0  0  0  0  0  0
   35.5765    7.1469    0.0000 H   0  0  0  0  0  0  0  0  0  0  0  0
   34.7794    7.1469    0.0000 H   0  0  0  0  0  0  0  0  0  0  0  0
    8.7297    6.6469    0.0000 H   0  0  0  0  0  0  0  0  0  0  0  0
    7.9326    6.6469    0.0000 H   0  0  0  0  0  0  0  0  0  0  0  0
   35.6454    5.6970    0.0000 H   0  0  0  0  0  0  0  0  0  0  0  0
   36.4425    5.6970    0.0000 H   0  0  0  0  0  0  0  0  0  0  0  0
    7.0666    5.1970    0.0000 H   0  0  0  0  0  0  0  0  0  0  0  0
    7.8637    5.1970    0.0000 H   0  0  0  0  0  0  0  0  0  0  0  0
   37.3085    7.1469    0.0000 H   0  0  0  0  0  0  0  0  0  0  0  0
   36.5115    7.1469    0.0000 H   0  0  0  0  0  0  0  0  0  0  0  0
    6.9976    6.6469    0.0000 H   0  0  0  0  0  0  0  0  0  0  0  0
    6.2006    6.6469    0.0000 H   0  0  0  0  0  0  0  0  0  0  0  0
   37.3775    5.6970    0.0000 H   0  0  0  0  0  0  0  0  0  0  0  0
   38.1746    5.6970    0.0000 H   0  0  0  0  0  0  0  0  0  0  0  0
    5.3346    5.1970    0.0000 H   0  0  0  0  0  0  0  0  0  0  0  0
    6.1316    5.1970    0.0000 H   0  0  0  0  0  0  0  0  0  0  0  0
   39.0406    7.1469    0.0000 H   0  0  0  0  0  0  0  0  0  0  0  0
   38.2435    7.1469    0.0000 H   0  0  0  0  0  0  0  0  0  0  0  0
    5.2656    6.6469    0.0000 H   0  0  0  0  0  0  0  0  0  0  0  0
    4.4685    6.6469    0.0000 H   0  0  0  0  0  0  0  0  0  0  0  0
   39.1096    5.6970    0.0000 H   0  0  0  0  0  0  0  0  0  0  0  0
   39.9066    5.6970    0.0000 H   0  0  0  0  0  0  0  0  0  0  0  0
    3.6025    5.1970    0.0000 H   0  0  0  0  0  0  0  0  0  0  0  0
    4.3996    5.1970    0.0000 H   0  0  0  0  0  0  0  0  0  0  0  0
   40.7726    7.1469    0.0000 H   0  0  0  0  0  0  0  0  0  0  0  0
   39.9756    7.1469    0.0000 H   0  0  0  0  0  0  0  0  0  0  0  0
    3.5335    6.6469    0.0000 H   0  0  0  0  0  0  0  0  0  0  0  0
    2.7365    6.6469    0.0000 H   0  0  0  0  0  0  0  0  0  0  0  0
   40.8416    5.6970    0.0000 H   0  0  0  0  0  0  0  0  0  0  0  0
   41.6387    5.6970    0.0000 H   0  0  0  0  0  0  0  0  0  0  0  0
    1.8705    5.1970    0.0000 H   0  0  0  0  0  0  0  0  0  0  0  0
    2.6675    5.1970    0.0000 H   0  0  0  0  0  0  0  0  0  0  0  0
   42.5047    7.1469    0.0000 H   0  0  0  0  0  0  0  0  0  0  0  0
   41.7076    7.1469    0.0000 H   0  0  0  0  0  0  0  0  0  0  0  0
    1.8015    6.6469    0.0000 H   0  0  0  0  0  0  0  0  0  0  0  0
    1.0044    6.6469    0.0000 H   0  0  0  0  0  0  0  0  0  0  0  0
   42.5737    5.6970    0.0000 H   0  0  0  0  0  0  0  0  0  0  0  0
   43.3707    5.6970    0.0000 H   0  0  0  0  0  0  0  0  0  0  0  0
    0.2269    6.2089    0.0000 H   0  0  0  0  0  0  0  0  0  0  0  0
    0.0000    5.3620    0.0000 H   0  0  0  0  0  0  0  0  0  0  0  0
    0.8469    5.1350    0.0000 H   0  0  0  0  0  0  0  0  0  0  0  0
   44.1482    6.1350    0.0000 H   0  0  0  0  0  0  0  0  0  0  0  0
   44.3751    6.9820    0.0000 H   0  0  0  0  0  0  0  0  0  0  0  0
   43.5282    7.2089    0.0000 H   0  0  0  0  0  0  0  0  0  0  0  0
   22.3866    0.3911    0.0000 H   0  0  0  0  0  0  0  0  0  0  0  0
   23.1837    0.3911    0.0000 H   0  0  0  0  0  0  0  0  0  0  0  0
   23.9612    0.8291    0.0000 H   0  0  0  0  0  0  0  0  0  0  0  0
   24.1881    1.6760    0.0000 H   0  0  0  0  0  0  0  0  0  0  0  0
   23.3412    1.9030    0.0000 H   0  0  0  0  0  0  0  0  0  0  0  0
  1  4  1  0  0  0  0
  1  5  1  0  0  0  0
  1  6  2  0  0  0  0
  1  7  2  0  0  0  0
  2 21  2  0  0  0  0
  3 22  2  0  0  0  0
  4 65  1  0  0  0  0
  8 12  1  0  0  0  0
  8 13  1  0  0  0  0
  8 14  1  0  0  0  0
  8 15  1  0  0  0  0
  9 16  1  0  0  0  0
  9 21  1  0  0  0  0
  9 84  1  0  0  0  0
 10 17  1  0  0  0  0
 10 22  1  0  0  0  0
 10 85  1  0  0  0  0
 11 20  3  0  0  0  0
 12 16  1  0  0  0  0
 12 67  1  0  0  0  0
 12 68  1  0  0  0  0
 13 17  1  0  0  0  0
 13 69  1  0  0  0  0
 13 70  1  0  0  0  0
 14 18  1  0  0  0  0
 14 71  1  0  0  0  0
 14 72  1  0  0  0  0
 15 19  1  0  0  0  0
 15 73  1  0  0  0  0
 15 74  1  0  0  0  0
 16 75  1  0  0  0  0
 16 76  1  0  0  0  0
 17 77  1  0  0  0  0
 17 78  1  0  0  0  0
 18 20  1  0  0  0  0
 18 79  1  0  0  0  0
 18 80  1  0  0  0  0
 19 81  1  0  0  0  0
 19 82  1  0  0  0  0
 19 83  1  0  0  0  0
 21 23  1  0  0  0  0
 22 24  1  0  0  0  0
 23 25  1  0  0  0  0
 23 86  1  0  0  0  0
 23 87  1  0  0  0  0
 24 26  1  0  0  0  0
 24 88  1  0  0  0  0
 24 89  1  0  0  0  0
 25 27  1  0  0  0  0
 25 90  1  0  0  0  0
 25 91  1  0  0  0  0
 26 28  1  0  0  0  0
 26 92  1  0  0  0  0
 26 93  1  0  0  0  0
 27 29  1  0  0  0  0
 27 94  1  0  0  0  0
 27 95  1  0  0  0  0
 28 30  1  0  0  0  0
 28 96  1  0  0  0  0
 28 97  1  0  0  0  0
 29 31  1  0  0  0  0
 29 98  1  0  0  0  0
 29 99  1  0  0  0  0
 30 32  1  0  0  0  0
 30100  1  0  0  0  0
 30101  1  0  0  0  0
 31 33  1  0  0  0  0
 31102  1  0  0  0  0
 31103  1  0  0  0  0
 32 34  1  0  0  0  0
 32104  1  0  0  0  0
 32105  1  0  0  0  0
 33 35  1  0  0  0  0
 33106  1  0  0  0  0
 33107  1  0  0  0  0
 34 36  1  0  0  0  0
 34108  1  0  0  0  0
 34109  1  0  0  0  0
 35 37  1  0  0  0  0
 35110  1  0  0  0  0
 35111  1  0  0  0  0
 36 38  1  0  0  0  0
 36112  1  0  0  0  0
 36113  1  0  0  0  0
 37 39  1  0  0  0  0
 37114  1  0  0  0  0
 37115  1  0  0  0  0
 38 40  1  0  0  0  0
 38116  1  0  0  0  0
 38117  1  0  0  0  0
 39 41  1  0  0  0  0
 39118  1  0  0  0  0
 39119  1  0  0  0  0
 40 42  1  0  0  0  0
 40120  1  0  0  0  0
 40121  1  0  0  0  0
 41 43  1  0  0  0  0
 41122  1  0  0  0  0
 41123  1  0  0  0  0
 42 44  1  0  0  0  0
 42124  1  0  0  0  0
 42125  1  0  0  0  0
 43 45  1  0  0  0  0
 43126  1  0  0  0  0
 43127  1  0  0  0  0
 44 46  1  0  0  0  0
 44128  1  0  0  0  0
 44129  1  0  0  0  0
 45 47  1  0  0  0  0
 45130  1  0  0  0  0
 45131  1  0  0  0  0
 46 48  1  0  0  0  0
 46132  1  0  0  0  0
 46133  1  0  0  0  0
 47 49  1  0  0  0  0
 47134  1  0  0  0  0
 47135  1  0  0  0  0
 48 50  1  0  0  0  0
 48136  1  0  0  0  0
 48137  1  0  0  0  0
 49 51  1  0  0  0  0
 49138  1  0  0  0  0
 49139  1  0  0  0  0
 50 52  1  0  0  0  0
 50140  1  0  0  0  0
 50141  1  0  0  0  0
 51 53  1  0  0  0  0
 51142  1  0  0  0  0
 51143  1  0  0  0  0
 52 54  1  0  0  0  0
 52144  1  0  0  0  0
 52145  1  0  0  0  0
 53 55  1  0  0  0  0
 53146  1  0  0  0  0
 53147  1  0  0  0  0
 54 56  1  0  0  0  0
 54148  1  0  0  0  0
 54149  1  0  0  0  0
 55 57  1  0  0  0  0
 55150  1  0  0  0  0
 55151  1  0  0  0  0
 56 58  1  0  0  0  0
 56152  1  0  0  0  0
 56153  1  0  0  0  0
 57 59  1  0  0  0  0
 57154  1  0  0  0  0
 57155  1  0  0  0  0
 58 60  1  0  0  0  0
 58156  1  0  0  0  0
 58157  1  0  0  0  0
 59 61  1  0  0  0  0
 59158  1  0  0  0  0
 59159  1  0  0  0  0
 60 62  1  0  0  0  0
 60160  1  0  0  0  0
 60161  1  0  0  0  0
 61 63  1  0  0  0  0
 61162  1  0  0  0  0
 61163  1  0  0  0  0
 62 64  1  0  0  0  0
 62164  1  0  0  0  0
 62165  1  0  0  0  0
 63166  1  0  0  0  0
 63167  1  0  0  0  0
 63168  1  0  0  0  0
 64169  1  0  0  0  0
 64170  1  0  0  0  0
 64171  1  0  0  0  0
 65 66  1  0  0  0  0
 65172  1  0  0  0  0
 65173  1  0  0  0  0
 66174  1  0  0  0  0
 66175  1  0  0  0  0
 66176  1  0  0  0  0
M  CHG  2   5  -1   8   1
M  END
> <PUBCHEM_COMPOUND_CID>
105500

> <PUBCHEM_COMPOUND_CANONICALIZED>
1

> <PUBCHEM_CACTVS_COMPLEXITY>
974

> <PUBCHEM_CACTVS_HBOND_ACCEPTOR>
7

> <PUBCHEM_CACTVS_HBOND_DONOR>
2

> <PUBCHEM_CACTVS_ROTATABLE_BOND>
50

> <PUBCHEM_CACTVS_SUBSKEYS>
AAADcfB/uABAAAAAAAAAAAAAAAAAAAAAAAAAAAAAAAAAAAAAAAAAHgAQAAAACADhgAYCAAPAAAAYBAEQEDAAAAAAAAAAAIEIAAAAwBIAgAAUAAAAFgCAAAEYiICAAAAAAAAAAAAAAAAAAAAAAAAAAAAAAA==

> <PUBCHEM_IUPAC_OPENEYE_NAME>
2-cyanoethyl-bis[2-(docosanoylamino)ethyl]-ethyl-ammonium;ethyl sulfate

> <PUBCHEM_IUPAC_CAS_NAME>
2-cyanoethyl-ethyl-bis[2-(1-oxodocosylamino)ethyl]ammonium;ethyl sulfate

> <PUBCHEM_IUPAC_NAME_MARKUP>
2-cyanoethyl-bis[2-(docosanoylamino)ethyl]-ethylazanium;ethyl sulfate

> <PUBCHEM_IUPAC_NAME>
2-cyanoethyl-bis[2-(docosanoylamino)ethyl]-ethylazanium;ethyl sulfate

> <PUBCHEM_IUPAC_SYSTEMATIC_NAME>
2-cyanoethyl-bis[2-(docosanoylamino)ethyl]-ethyl-azanium;ethyl sulfate

> <PUBCHEM_IUPAC_TRADITIONAL_NAME>
2-cyanoethyl-bis[2-(docosanoylamino)ethyl]-ethyl-ammonium;ethyl sulfate

> <PUBCHEM_IUPAC_INCHI>
InChI=1S/C53H104N4O2.C2H6O4S/c1-4-7-9-11-13-15-17-19-21-23-25-27-29-31-33-35-37-39-41-44-52(58)55-47-50-57(6-3,49-43-46-54)51-48-56-53(59)45-42-40-38-36-34-32-30-28-26-24-22-20-18-16-14-12-10-8-5-2;1-2-6-7(3,4)5/h4-45,47-51H2,1-3H3,(H-,55,56,58,59);2H2,1H3,(H,3,4,5)

> <PUBCHEM_IUPAC_INCHIKEY>
VXPGBDUSOZAZHV-UHFFFAOYSA-N

> <PUBCHEM_EXACT_MASS>
954.81460841

> <PUBCHEM_MOLECULAR_FORMULA>
C55H110N4O6S

> <PUBCHEM_MOLECULAR_WEIGHT>
955.6

> <PUBCHEM_SMILES>
CCCCCCCCCCCCCCCCCCCCCC(=O)NCC[N+](CC)(CCC#N)CCNC(=O)CCCCCCCCCCCCCCCCCCCCC.CCOS(=O)(=O)[O-]

> <PUBCHEM_CONNECTIVITY_SMILES>
CCCCCCCCCCCCCCCCCCCCCC(=O)NCC[N+](CC)(CCC#N)CCNC(=O)CCCCCCCCCCCCCCCCCCCCC.CCOS(=O)(=O)[O-]

> <PUBCHEM_CACTVS_TPSA>
157

> <PUBCHEM_MONOISOTOPIC_WEIGHT>
954.81460841

> <PUBCHEM_TOTAL_CHARGE>
0

> <PUBCHEM_HEAVY_ATOM_COUNT>
66

> <PUBCHEM_ATOM_DEF_STEREO_COUNT>
0

> <PUBCHEM_ATOM_UDEF_STEREO_COUNT>
0

> <PUBCHEM_BOND_DEF_STEREO_COUNT>
0

> <PUBCHEM_BOND_UDEF_STEREO_COUNT>
0

> <PUBCHEM_ISOTOPIC_ATOM_COUNT>
0

> <PUBCHEM_COMPONENT_COUNT>
2

> <PUBCHEM_CACTVS_TAUTO_COUNT>
-1

> <PUBCHEM_COORDINATE_TYPE>
1
5
255

$$$$
