105300
  -OEChem-11142516422D

127125  0     0  0  0  0  0  0999 V2000
    3.7320    0.0000    0.0000 S   0  0  0  0  0  0  0  0  0  0  0  0
    2.0000   -0.0000    0.0000 Na  0  3  0  0  0  0  0  0  0  0  0  0
   35.7750    0.5000    0.0000 O   0  0  0  0  0  0  0  0  0  0  0  0
   33.1769   -0.0000    0.0000 O   0  0  0  0  0  0  0  0  0  0  0  0
   30.5788    0.5000    0.0000 O   0  0  0  0  0  0  0  0  0  0  0  0
   27.9808   -0.0000    0.0000 O   0  0  0  0  0  0  0  0  0  0  0  0
   25.3827    0.5000    0.0000 O   0  0  0  0  0  0  0  0  0  0  0  0
   22.7846   -0.0000    0.0000 O   0  0  0  0  0  0  0  0  0  0  0  0
   20.1865    0.5000    0.0000 O   0  0  0  0  0  0  0  0  0  0  0  0
   17.5885   -0.0000    0.0000 O   0  0  0  0  0  0  0  0  0  0  0  0
   14.9904    0.5000    0.0000 O   0  0  0  0  0  0  0  0  0  0  0  0
   12.3923   -0.0000    0.0000 O   0  0  0  0  0  0  0  0  0  0  0  0
    9.7942    0.5000    0.0000 O   0  0  0  0  0  0  0  0  0  0  0  0
    7.1962   -0.0000    0.0000 O   0  0  0  0  0  0  0  0  0  0  0  0
    4.5981    0.5000    0.0000 O   0  0  0  0  0  0  0  0  0  0  0  0
    2.8660   -0.5000    0.0000 O   0  5  0  0  0  0  0  0  0  0  0  0
    3.2320    0.8660    0.0000 O   0  0  0  0  0  0  0  0  0  0  0  0
    4.2320   -0.8660    0.0000 O   0  0  0  0  0  0  0  0  0  0  0  0
   40.9711    0.5000    0.0000 C   0  0  0  0  0  0  0  0  0  0  0  0
   41.8372   -0.0000    0.0000 C   0  0  0  0  0  0  0  0  0  0  0  0
   40.1051   -0.0000    0.0000 C   0  0  0  0  0  0  0  0  0  0  0  0
   42.7032    0.5000    0.0000 C   0  0  0  0  0  0  0  0  0  0  0  0
   39.2391    0.5000    0.0000 C   0  0  0  0  0  0  0  0  0  0  0  0
   43.5692   -0.0000    0.0000 C   0  0  0  0  0  0  0  0  0  0  0  0
   38.3731   -0.0000    0.0000 C   0  0  0  0  0  0  0  0  0  0  0  0
   44.4352    0.5000    0.0000 C   0  0  0  0  0  0  0  0  0  0  0  0
   37.5070    0.5000    0.0000 C   0  0  0  0  0  0  0  0  0  0  0  0
   45.3013   -0.0000    0.0000 C   0  0  0  0  0  0  0  0  0  0  0  0
   36.6410   -0.0000    0.0000 C   0  0  0  0  0  0  0  0  0  0  0  0
   46.1673    0.5000    0.0000 C   0  0  0  0  0  0  0  0  0  0  0  0
   34.9090   -0.0000    0.0000 C   0  0  0  0  0  0  0  0  0  0  0  0
   34.0429    0.5000    0.0000 C   0  0  0  0  0  0  0  0  0  0  0  0
   32.3109    0.5000    0.0000 C   0  0  0  0  0  0  0  0  0  0  0  0
   31.4449   -0.0000    0.0000 C   0  0  0  0  0  0  0  0  0  0  0  0
   29.7128   -0.0000    0.0000 C   0  0  0  0  0  0  0  0  0  0  0  0
   28.8468    0.5000    0.0000 C   0  0  0  0  0  0  0  0  0  0  0  0
   27.1147    0.5000    0.0000 C   0  0  0  0  0  0  0  0  0  0  0  0
   26.2487   -0.0000    0.0000 C   0  0  0  0  0  0  0  0  0  0  0  0
   24.5167   -0.0000    0.0000 C   0  0  0  0  0  0  0  0  0  0  0  0
   23.6506    0.5000    0.0000 C   0  0  0  0  0  0  0  0  0  0  0  0
   21.9186    0.5000    0.0000 C   0  0  0  0  0  0  0  0  0  0  0  0
   21.0526   -0.0000    0.0000 C   0  0  0  0  0  0  0  0  0  0  0  0
   19.3205   -0.0000    0.0000 C   0  0  0  0  0  0  0  0  0  0  0  0
   18.4545    0.5000    0.0000 C   0  0  0  0  0  0  0  0  0  0  0  0
   16.7224    0.5000    0.0000 C   0  0  0  0  0  0  0  0  0  0  0  0
   15.8564   -0.0000    0.0000 C   0  0  0  0  0  0  0  0  0  0  0  0
   14.1244   -0.0000    0.0000 C   0  0  0  0  0  0  0  0  0  0  0  0
   13.2583    0.5000    0.0000 C   0  0  0  0  0  0  0  0  0  0  0  0
   11.5263    0.5000    0.0000 C   0  0  0  0  0  0  0  0  0  0  0  0
   10.6603   -0.0000    0.0000 C   0  0  0  0  0  0  0  0  0  0  0  0
    8.9282   -0.0000    0.0000 C   0  0  0  0  0  0  0  0  0  0  0  0
    8.0622    0.5000    0.0000 C   0  0  0  0  0  0  0  0  0  0  0  0
    6.3301    0.5000    0.0000 C   0  0  0  0  0  0  0  0  0  0  0  0
    5.4641    0.0000    0.0000 C   0  0  0  0  0  0  0  0  0  0  0  0
   41.3697    0.9749    0.0000 H   0  0  0  0  0  0  0  0  0  0  0  0
   40.5726    0.9749    0.0000 H   0  0  0  0  0  0  0  0  0  0  0  0
   41.4386   -0.4749    0.0000 H   0  0  0  0  0  0  0  0  0  0  0  0
   42.2357   -0.4749    0.0000 H   0  0  0  0  0  0  0  0  0  0  0  0
   39.7066   -0.4749    0.0000 H   0  0  0  0  0  0  0  0  0  0  0  0
   40.5036   -0.4749    0.0000 H   0  0  0  0  0  0  0  0  0  0  0  0
   43.1017    0.9749    0.0000 H   0  0  0  0  0  0  0  0  0  0  0  0
   42.3047    0.9749    0.0000 H   0  0  0  0  0  0  0  0  0  0  0  0
   39.6376    0.9749    0.0000 H   0  0  0  0  0  0  0  0  0  0  0  0
   38.8406    0.9749    0.0000 H   0  0  0  0  0  0  0  0  0  0  0  0
   43.1707   -0.4749    0.0000 H   0  0  0  0  0  0  0  0  0  0  0  0
   43.9677   -0.4749    0.0000 H   0  0  0  0  0  0  0  0  0  0  0  0
   37.9745   -0.4749    0.0000 H   0  0  0  0  0  0  0  0  0  0  0  0
   38.7716   -0.4749    0.0000 H   0  0  0  0  0  0  0  0  0  0  0  0
   44.8338    0.9749    0.0000 H   0  0  0  0  0  0  0  0  0  0  0  0
   44.0367    0.9749    0.0000 H   0  0  0  0  0  0  0  0  0  0  0  0
   37.9056    0.9749    0.0000 H   0  0  0  0  0  0  0  0  0  0  0  0
   37.1085    0.9749    0.0000 H   0  0  0  0  0  0  0  0  0  0  0  0
   44.9027   -0.4749    0.0000 H   0  0  0  0  0  0  0  0  0  0  0  0
   45.6998   -0.4749    0.0000 H   0  0  0  0  0  0  0  0  0  0  0  0
   36.2425   -0.4749    0.0000 H   0  0  0  0  0  0  0  0  0  0  0  0
   37.0395   -0.4749    0.0000 H   0  0  0  0  0  0  0  0  0  0  0  0
   46.4773   -0.0369    0.0000 H   0  0  0  0  0  0  0  0  0  0  0  0
   46.7042    0.8100    0.0000 H   0  0  0  0  0  0  0  0  0  0  0  0
   45.8573    1.0369    0.0000 H   0  0  0  0  0  0  0  0  0  0  0  0
   34.5104   -0.4749    0.0000 H   0  0  0  0  0  0  0  0  0  0  0  0
   35.3075   -0.4749    0.0000 H   0  0  0  0  0  0  0  0  0  0  0  0
   34.4415    0.9749    0.0000 H   0  0  0  0  0  0  0  0  0  0  0  0
   33.6444    0.9749    0.0000 H   0  0  0  0  0  0  0  0  0  0  0  0
   32.7094    0.9749    0.0000 H   0  0  0  0  0  0  0  0  0  0  0  0
   31.9124    0.9749    0.0000 H   0  0  0  0  0  0  0  0  0  0  0  0
   31.0463   -0.4749    0.0000 H   0  0  0  0  0  0  0  0  0  0  0  0
   31.8434   -0.4749    0.0000 H   0  0  0  0  0  0  0  0  0  0  0  0
   29.3143   -0.4749    0.0000 H   0  0  0  0  0  0  0  0  0  0  0  0
   30.1113   -0.4749    0.0000 H   0  0  0  0  0  0  0  0  0  0  0  0
   29.2453    0.9749    0.0000 H   0  0  0  0  0  0  0  0  0  0  0  0
   28.4483    0.9749    0.0000 H   0  0  0  0  0  0  0  0  0  0  0  0
   27.5133    0.9749    0.0000 H   0  0  0  0  0  0  0  0  0  0  0  0
   26.7162    0.9749    0.0000 H   0  0  0  0  0  0  0  0  0  0  0  0
   25.8502   -0.4749    0.0000 H   0  0  0  0  0  0  0  0  0  0  0  0
   26.6472   -0.4749    0.0000 H   0  0  0  0  0  0  0  0  0  0  0  0
   24.1181   -0.4749    0.0000 H   0  0  0  0  0  0  0  0  0  0  0  0
   24.9152   -0.4749    0.0000 H   0  0  0  0  0  0  0  0  0  0  0  0
   24.0492    0.9749    0.0000 H   0  0  0  0  0  0  0  0  0  0  0  0
   23.2521    0.9749    0.0000 H   0  0  0  0  0  0  0  0  0  0  0  0
   22.3171    0.9749    0.0000 H   0  0  0  0  0  0  0  0  0  0  0  0
   21.5201    0.9749    0.0000 H   0  0  0  0  0  0  0  0  0  0  0  0
   20.6540   -0.4749    0.0000 H   0  0  0  0  0  0  0  0  0  0  0  0
   21.4511   -0.4749    0.0000 H   0  0  0  0  0  0  0  0  0  0  0  0
   18.9220   -0.4749    0.0000 H   0  0  0  0  0  0  0  0  0  0  0  0
   19.7190   -0.4749    0.0000 H   0  0  0  0  0  0  0  0  0  0  0  0
   18.8530    0.9749    0.0000 H   0  0  0  0  0  0  0  0  0  0  0  0
   18.0560    0.9749    0.0000 H   0  0  0  0  0  0  0  0  0  0  0  0
   17.1210    0.9749    0.0000 H   0  0  0  0  0  0  0  0  0  0  0  0
   16.3239    0.9749    0.0000 H   0  0  0  0  0  0  0  0  0  0  0  0
   15.4579   -0.4749    0.0000 H   0  0  0  0  0  0  0  0  0  0  0  0
   16.2549   -0.4749    0.0000 H   0  0  0  0  0  0  0  0  0  0  0  0
   13.7258   -0.4749    0.0000 H   0  0  0  0  0  0  0  0  0  0  0  0
   14.5229   -0.4749    0.0000 H   0  0  0  0  0  0  0  0  0  0  0  0
   13.6569    0.9749    0.0000 H   0  0  0  0  0  0  0  0  0  0  0  0
   12.8598    0.9749    0.0000 H   0  0  0  0  0  0  0  0  0  0  0  0
   11.9248    0.9749    0.0000 H   0  0  0  0  0  0  0  0  0  0  0  0
   11.1278    0.9749    0.0000 H   0  0  0  0  0  0  0  0  0  0  0  0
   10.2617   -0.4749    0.0000 H   0  0  0  0  0  0  0  0  0  0  0  0
   11.0588   -0.4749    0.0000 H   0  0  0  0  0  0  0  0  0  0  0  0
    8.5297   -0.4749    0.0000 H   0  0  0  0  0  0  0  0  0  0  0  0
    9.3267   -0.4749    0.0000 H   0  0  0  0  0  0  0  0  0  0  0  0
    8.4607    0.9749    0.0000 H   0  0  0  0  0  0  0  0  0  0  0  0
    7.6636    0.9749    0.0000 H   0  0  0  0  0  0  0  0  0  0  0  0
    6.7287    0.9749    0.0000 H   0  0  0  0  0  0  0  0  0  0  0  0
    5.9316    0.9749    0.0000 H   0  0  0  0  0  0  0  0  0  0  0  0
    5.0656   -0.4749    0.0000 H   0  0  0  0  0  0  0  0  0  0  0  0
    5.8626   -0.4749    0.0000 H   0  0  0  0  0  0  0  0  0  0  0  0
  1 15  1  0  0  0  0
  1 16  1  0  0  0  0
  1 17  2  0  0  0  0
  1 18  2  0  0  0  0
  3 29  1  0  0  0  0
  3 31  1  0  0  0  0
  4 32  1  0  0  0  0
  4 33  1  0  0  0  0
  5 34  1  0  0  0  0
  5 35  1  0  0  0  0
  6 36  1  0  0  0  0
  6 37  1  0  0  0  0
  7 38  1  0  0  0  0
  7 39  1  0  0  0  0
  8 40  1  0  0  0  0
  8 41  1  0  0  0  0
  9 42  1  0  0  0  0
  9 43  1  0  0  0  0
 10 44  1  0  0  0  0
 10 45  1  0  0  0  0
 11 46  1  0  0  0  0
 11 47  1  0  0  0  0
 12 48  1  0  0  0  0
 12 49  1  0  0  0  0
 13 50  1  0  0  0  0
 13 51  1  0  0  0  0
 14 52  1  0  0  0  0
 14 53  1  0  0  0  0
 15 54  1  0  0  0  0
 19 20  1  0  0  0  0
 19 21  1  0  0  0  0
 19 55  1  0  0  0  0
 19 56  1  0  0  0  0
 20 22  1  0  0  0  0
 20 57  1  0  0  0  0
 20 58  1  0  0  0  0
 21 23  1  0  0  0  0
 21 59  1  0  0  0  0
 21 60  1  0  0  0  0
 22 24  1  0  0  0  0
 22 61  1  0  0  0  0
 22 62  1  0  0  0  0
 23 25  1  0  0  0  0
 23 63  1  0  0  0  0
 23 64  1  0  0  0  0
 24 26  1  0  0  0  0
 24 65  1  0  0  0  0
 24 66  1  0  0  0  0
 25 27  1  0  0  0  0
 25 67  1  0  0  0  0
 25 68  1  0  0  0  0
 26 28  1  0  0  0  0
 26 69  1  0  0  0  0
 26 70  1  0  0  0  0
 27 29  1  0  0  0  0
 27 71  1  0  0  0  0
 27 72  1  0  0  0  0
 28 30  1  0  0  0  0
 28 73  1  0  0  0  0
 28 74  1  0  0  0  0
 29 75  1  0  0  0  0
 29 76  1  0  0  0  0
 30 77  1  0  0  0  0
 30 78  1  0  0  0  0
 30 79  1  0  0  0  0
 31 32  1  0  0  0  0
 31 80  1  0  0  0  0
 31 81  1  0  0  0  0
 32 82  1  0  0  0  0
 32 83  1  0  0  0  0
 33 34  1  0  0  0  0
 33 84  1  0  0  0  0
 33 85  1  0  0  0  0
 34 86  1  0  0  0  0
 34 87  1  0  0  0  0
 35 36  1  0  0  0  0
 35 88  1  0  0  0  0
 35 89  1  0  0  0  0
 36 90  1  0  0  0  0
 36 91  1  0  0  0  0
 37 38  1  0  0  0  0
 37 92  1  0  0  0  0
 37 93  1  0  0  0  0
 38 94  1  0  0  0  0
 38 95  1  0  0  0  0
 39 40  1  0  0  0  0
 39 96  1  0  0  0  0
 39 97  1  0  0  0  0
 40 98  1  0  0  0  0
 40 99  1  0  0  0  0
 41 42  1  0  0  0  0
 41100  1  0  0  0  0
 41101  1  0  0  0  0
 42102  1  0  0  0  0
 42103  1  0  0  0  0
 43 44  1  0  0  0  0
 43104  1  0  0  0  0
 43105  1  0  0  0  0
 44106  1  0  0  0  0
 44107  1  0  0  0  0
 45 46  1  0  0  0  0
 45108  1  0  0  0  0
 45109  1  0  0  0  0
 46110  1  0  0  0  0
 46111  1  0  0  0  0
 47 48  1  0  0  0  0
 47112  1  0  0  0  0
 47113  1  0  0  0  0
 48114  1  0  0  0  0
 48115  1  0  0  0  0
 49 50  1  0  0  0  0
 49116  1  0  0  0  0
 49117  1  0  0  0  0
 50118  1  0  0  0  0
 50119  1  0  0  0  0
 51 52  1  0  0  0  0
 51120  1  0  0  0  0
 51121  1  0  0  0  0
 52122  1  0  0  0  0
 52123  1  0  0  0  0
 53 54  1  0  0  0  0
 53124  1  0  0  0  0
 53125  1  0  0  0  0
 54126  1  0  0  0  0
 54127  1  0  0  0  0
M  CHG  2   2   1  16  -1
M  END
> <PUBCHEM_COMPOUND_CID>
105300

> <PUBCHEM_COMPOUND_CANONICALIZED>
1

> <PUBCHEM_CACTVS_COMPLEXITY>
762

> <PUBCHEM_CACTVS_HBOND_ACCEPTOR>
16

> <PUBCHEM_CACTVS_HBOND_DONOR>
0

> <PUBCHEM_CACTVS_ROTATABLE_BOND>
47

> <PUBCHEM_CACTVS_SUBSKEYS>
AAADcfB8PiBAAAAAAAAAAAAAAAAAAAAAAAAAAAAAAAAAAAAAAAAAGgAAAAAACACggAICAAAABAAAAAAAADAAAAAAAAAAAAAAAAABAAIAAAACAAAEAAACAAGAwKAAAAAAAAAAAAAAAAAAAAAAAAAAAAAAAA==

> <PUBCHEM_IUPAC_OPENEYE_NAME>
sodium 2-[2-[2-[2-[2-[2-[2-[2-[2-[2-[2-(2-dodecoxyethoxy)ethoxy]ethoxy]ethoxy]ethoxy]ethoxy]ethoxy]ethoxy]ethoxy]ethoxy]ethoxy]ethyl sulfate

> <PUBCHEM_IUPAC_CAS_NAME>
sodium 2-[2-[2-[2-[2-[2-[2-[2-[2-[2-[2-(2-dodecoxyethoxy)ethoxy]ethoxy]ethoxy]ethoxy]ethoxy]ethoxy]ethoxy]ethoxy]ethoxy]ethoxy]ethyl sulfate

> <PUBCHEM_IUPAC_NAME_MARKUP>
sodium 2-[2-[2-[2-[2-[2-[2-[2-[2-[2-[2-(2-dodecoxyethoxy)ethoxy]ethoxy]ethoxy]ethoxy]ethoxy]ethoxy]ethoxy]ethoxy]ethoxy]ethoxy]ethyl sulfate

> <PUBCHEM_IUPAC_NAME>
sodium 2-[2-[2-[2-[2-[2-[2-[2-[2-[2-[2-(2-dodecoxyethoxy)ethoxy]ethoxy]ethoxy]ethoxy]ethoxy]ethoxy]ethoxy]ethoxy]ethoxy]ethoxy]ethyl sulfate

> <PUBCHEM_IUPAC_SYSTEMATIC_NAME>
sodium 2-[2-[2-[2-[2-[2-[2-[2-[2-[2-[2-(2-dodecoxyethoxy)ethoxy]ethoxy]ethoxy]ethoxy]ethoxy]ethoxy]ethoxy]ethoxy]ethoxy]ethoxy]ethyl sulfate

> <PUBCHEM_IUPAC_TRADITIONAL_NAME>
sodium 2-[2-[2-[2-[2-[2-[2-[2-[2-[2-[2-(2-lauryloxyethoxy)ethoxy]ethoxy]ethoxy]ethoxy]ethoxy]ethoxy]ethoxy]ethoxy]ethoxy]ethoxy]ethyl sulfate

> <PUBCHEM_IUPAC_INCHI>
InChI=1S/C36H74O16S.Na/c1-2-3-4-5-6-7-8-9-10-11-12-40-13-14-41-15-16-42-17-18-43-19-20-44-21-22-45-23-24-46-25-26-47-27-28-48-29-30-49-31-32-50-33-34-51-35-36-52-53(37,38)39;/h2-36H2,1H3,(H,37,38,39);/q;+1/p-1

> <PUBCHEM_IUPAC_INCHIKEY>
AGMRJQXCAJZJNK-UHFFFAOYSA-M

> <PUBCHEM_EXACT_MASS>
816.45170169

> <PUBCHEM_MOLECULAR_FORMULA>
C36H73NaO16S

> <PUBCHEM_MOLECULAR_WEIGHT>
817.0

> <PUBCHEM_SMILES>
CCCCCCCCCCCCOCCOCCOCCOCCOCCOCCOCCOCCOCCOCCOCCOCCOS(=O)(=O)[O-].[Na+]

> <PUBCHEM_CONNECTIVITY_SMILES>
CCCCCCCCCCCCOCCOCCOCCOCCOCCOCCOCCOCCOCCOCCOCCOCCOS(=O)(=O)[O-].[Na+]

> <PUBCHEM_CACTVS_TPSA>
186

> <PUBCHEM_MONOISOTOPIC_WEIGHT>
816.45170169

> <PUBCHEM_TOTAL_CHARGE>
0

> <PUBCHEM_HEAVY_ATOM_COUNT>
54

> <PUBCHEM_ATOM_DEF_STEREO_COUNT>
0

> <PUBCHEM_ATOM_UDEF_STEREO_COUNT>
0

> <PUBCHEM_BOND_DEF_STEREO_COUNT>
0

> <PUBCHEM_BOND_UDEF_STEREO_COUNT>
0

> <PUBCHEM_ISOTOPIC_ATOM_COUNT>
0

> <PUBCHEM_COMPONENT_COUNT>
2

> <PUBCHEM_CACTVS_TAUTO_COUNT>
-1

> <PUBCHEM_COORDINATE_TYPE>
1
5
255

$$$$
