15000100
  -OEChem-11142520032D

199208  0     1  0  0  0  0  0999 V2000
   12.5212    9.1425    0.0000 O   0  0  0  0  0  0  0  0  0  0  0  0
    9.6455    2.0968    0.0000 O   0  0  0  0  0  0  0  0  0  0  0  0
   14.3163    8.0689    0.0000 O   0  0  0  0  0  0  0  0  0  0  0  0
   10.0692    8.4791    0.0000 O   0  0  0  0  0  0  0  0  0  0  0  0
   10.6603   -0.1160    0.0000 O   0  0  0  0  0  0  0  0  0  0  0  0
    9.6754    0.7103    0.0000 O   0  0  0  0  0  0  0  0  0  0  0  0
   14.2532    9.1225    0.0000 O   0  0  0  0  0  0  0  0  0  0  0  0
    8.9282   -0.1160    0.0000 O   0  0  0  0  0  0  0  0  0  0  0  0
   12.5444   11.1424    0.0000 O   0  0  0  0  0  0  0  0  0  0  0  0
   14.2879   12.1223    0.0000 O   0  0  0  0  0  0  0  0  0  0  0  0
   10.6603   -2.1160    0.0000 O   0  0  0  0  0  0  0  0  0  0  0  0
   16.0082   11.1023    0.0000 O   0  0  0  0  0  0  0  0  0  0  0  0
    8.9282   -3.1160    0.0000 O   0  0  0  0  0  0  0  0  0  0  0  0
    7.1962   -2.1160    0.0000 O   0  0  0  0  0  0  0  0  0  0  0  0
   15.9735    8.1025    0.0000 O   0  0  0  0  0  0  0  0  0  0  0  0
    9.7942   -3.6160    0.0000 O   0  0  0  0  0  0  0  0  0  0  0  0
   12.3923   -3.1160    0.0000 O   0  0  0  0  0  0  0  0  0  0  0  0
   12.3923   -5.1160    0.0000 O   0  0  0  0  0  0  0  0  0  0  0  0
   10.6603   -6.1160    0.0000 O   0  0  0  0  0  0  0  0  0  0  0  0
    6.3301   -0.6160    0.0000 O   0  0  0  0  0  0  0  0  0  0  0  0
    3.7320   -2.1160    0.0000 O   0  0  0  0  0  0  0  0  0  0  0  0
    8.9282   -6.1160    0.0000 O   0  0  0  0  0  0  0  0  0  0  0  0
   10.6603   -8.1160    0.0000 O   0  0  0  0  0  0  0  0  0  0  0  0
    8.9282   -9.1160    0.0000 O   0  0  0  0  0  0  0  0  0  0  0  0
    7.1962   -8.1160    0.0000 O   0  0  0  0  0  0  0  0  0  0  0  0
    2.8660   -0.6160    0.0000 O   0  0  0  0  0  0  0  0  0  0  0  0
    7.1962   -9.1160    0.0000 O   0  0  0  0  0  0  0  0  0  0  0  0
    8.9282  -11.1160    0.0000 O   0  0  0  0  0  0  0  0  0  0  0  0
    7.1962  -12.1160    0.0000 O   0  0  0  0  0  0  0  0  0  0  0  0
    5.4641  -11.1160    0.0000 O   0  0  0  0  0  0  0  0  0  0  0  0
   11.5659    4.4530    0.0000 C   0  0  2  0  0  0  0  0  0  0  0  0
   12.4598    5.9877    0.0000 C   0  0  2  0  0  0  0  0  0  0  0  0
   12.4357    4.9463    0.0000 C   0  0  3  0  0  0  0  0  0  0  0  0
   11.5582    3.4530    0.0000 C   0  0  1  0  0  0  0  0  0  0  0  0
   11.5659    6.5223    0.0000 C   0  0  2  0  0  0  0  0  0  0  0  0
   10.6598    4.9668    0.0000 C   0  0  0  0  0  0  0  0  0  0  0  0
   11.5659    7.6073    0.0000 C   0  0  1  0  0  0  0  0  0  0  0  0
   10.6598    6.0085    0.0000 C   0  0  0  0  0  0  0  0  0  0  0  0
   12.4203    2.9464    0.0000 C   0  0  0  0  0  0  0  0  0  0  0  0
   13.4157    6.5009    0.0000 C   0  0  0  0  0  0  0  0  0  0  0  0
   12.4284    1.9048    0.0000 C   0  0  1  0  0  0  0  0  0  0  0  0
   13.2979    4.4397    0.0000 C   0  0  0  0  0  0  0  0  0  0  0  0
   10.6443    2.9532    0.0000 C   0  0  0  0  0  0  0  0  0  0  0  0
   11.5263    1.3840    0.0000 C   0  0  1  0  0  0  0  0  0  0  0  0
   12.5097    8.1426    0.0000 C   0  0  2  0  0  0  0  0  0  0  0  0
   10.6282    1.9117    0.0000 C   0  0  2  0  0  0  0  0  0  0  0  0
   10.5798    4.2870    0.0000 C   0  0  0  0  0  0  0  0  0  0  0  0
   13.4408    7.5856    0.0000 C   0  0  1  0  0  0  0  0  0  0  0  0
   13.3180    5.4744    0.0000 C   0  0  0  0  0  0  0  0  0  0  0  0
   13.2902    3.4397    0.0000 C   0  0  0  0  0  0  0  0  0  0  0  0
   10.5747    3.6343    0.0000 C   0  0  0  0  0  0  0  0  0  0  0  0
   13.3762    1.3768    0.0000 C   0  0  0  0  0  0  0  0  0  0  0  0
   11.5096    0.2991    0.0000 C   0  0  0  0  0  0  0  0  0  0  0  0
   13.3846    0.2919    0.0000 C   0  0  0  0  0  0  0  0  0  0  0  0
   11.0692    8.4753    0.0000 C   0  0  0  0  0  0  0  0  0  0  0  0
   10.5659    7.6112    0.0000 C   0  0  0  0  0  0  0  0  0  0  0  0
   12.4450   -0.2506    0.0000 C   0  0  0  0  0  0  0  0  0  0  0  0
   10.6603    0.8840    0.0000 C   0  0  0  0  0  0  0  0  0  0  0  0
   14.3846    0.2957    0.0000 C   0  0  0  0  0  0  0  0  0  0  0  0
   13.8879   -0.5722    0.0000 C   0  0  0  0  0  0  0  0  0  0  0  0
   13.3930    9.6324    0.0000 C   0  0  2  0  0  0  0  0  0  0  0  0
   13.4046   10.6324    0.0000 C   0  0  1  0  0  0  0  0  0  0  0  0
    9.7942   -0.6160    0.0000 C   0  0  2  0  0  0  0  0  0  0  0  0
   14.2763   11.1223    0.0000 C   0  0  2  0  0  0  0  0  0  0  0  0
   15.1249    9.6124    0.0000 C   0  0  1  0  0  0  0  0  0  0  0  0
   15.1365   10.6124    0.0000 C   0  0  1  0  0  0  0  0  0  0  0  0
    9.7942   -1.6160    0.0000 C   0  0  2  0  0  0  0  0  0  0  0  0
    8.9282   -2.1160    0.0000 C   0  0  2  0  0  0  0  0  0  0  0  0
    8.0622   -0.6160    0.0000 C   0  0  1  0  0  0  0  0  0  0  0  0
   15.9851    9.1024    0.0000 C   0  0  0  0  0  0  0  0  0  0  0  0
    8.0622   -1.6160    0.0000 C   0  0  2  0  0  0  0  0  0  0  0  0
    7.1962   -0.1160    0.0000 C   0  0  0  0  0  0  0  0  0  0  0  0
   10.6603   -3.1160    0.0000 C   0  0  2  0  0  0  0  0  0  0  0  0
   11.5263   -3.6160    0.0000 C   0  0  1  0  0  0  0  0  0  0  0  0
   11.5263   -4.6160    0.0000 C   0  0  1  0  0  0  0  0  0  0  0  0
    6.3301   -1.6160    0.0000 C   0  0  0  0  0  0  0  0  0  0  0  0
    9.7942   -4.6160    0.0000 C   0  0  2  0  0  0  0  0  0  0  0  0
   10.6603   -5.1160    0.0000 C   0  0  2  0  0  0  0  0  0  0  0  0
    5.4641   -2.1160    0.0000 C   0  0  0  0  0  0  0  0  0  0  0  0
    8.9282   -5.1160    0.0000 C   0  0  0  0  0  0  0  0  0  0  0  0
    4.5981   -1.6160    0.0000 C   0  0  3  0  0  0  0  0  0  0  0  0
    9.7942   -6.6160    0.0000 C   0  0  2  0  0  0  0  0  0  0  0  0
    4.5981   -0.6160    0.0000 C   0  0  0  0  0  0  0  0  0  0  0  0
    9.7942   -7.6160    0.0000 C   0  0  1  0  0  0  0  0  0  0  0  0
    8.9282   -8.1160    0.0000 C   0  0  2  0  0  0  0  0  0  0  0  0
    8.0622   -6.6160    0.0000 C   0  0  0  0  0  0  0  0  0  0  0  0
    8.0622   -7.6160    0.0000 C   0  0  1  0  0  0  0  0  0  0  0  0
    2.8660   -1.6160    0.0000 C   0  0  0  0  0  0  0  0  0  0  0  0
    2.0000   -2.1160    0.0000 C   0  0  0  0  0  0  0  0  0  0  0  0
    8.0622   -9.6160    0.0000 C   0  0  2  0  0  0  0  0  0  0  0  0
    8.0622  -10.6160    0.0000 C   0  0  1  0  0  0  0  0  0  0  0  0
    7.1962  -11.1160    0.0000 C   0  0  3  0  0  0  0  0  0  0  0  0
    6.3301   -9.6160    0.0000 C   0  0  2  0  0  0  0  0  0  0  0  0
    6.3301  -10.6160    0.0000 C   0  0  2  0  0  0  0  0  0  0  0  0
    5.4641   -9.1160    0.0000 C   0  0  0  0  0  0  0  0  0  0  0  0
   12.9774    5.2480    0.0000 H   0  0  0  0  0  0  0  0  0  0  0  0
   10.8314    6.9502    0.0000 H   0  0  0  0  0  0  0  0  0  0  0  0
   10.0490    5.0729    0.0000 H   0  0  0  0  0  0  0  0  0  0  0  0
   10.4508    4.3832    0.0000 H   0  0  0  0  0  0  0  0  0  0  0  0
   10.4508    6.5922    0.0000 H   0  0  0  0  0  0  0  0  0  0  0  0
   10.0490    5.9024    0.0000 H   0  0  0  0  0  0  0  0  0  0  0  0
   13.6112    5.9126    0.0000 H   0  0  0  0  0  0  0  0  0  0  0  0
   14.0289    6.5929    0.0000 H   0  0  0  0  0  0  0  0  0  0  0  0
   13.1595    2.3383    0.0000 H   0  0  0  0  0  0  0  0  0  0  0  0
   13.9076    4.3273    0.0000 H   0  0  0  0  0  0  0  0  0  0  0  0
   13.5144    5.0206    0.0000 H   0  0  0  0  0  0  0  0  0  0  0  0
   10.4443    3.5401    0.0000 H   0  0  0  0  0  0  0  0  0  0  0  0
   10.0319    2.8566    0.0000 H   0  0  0  0  0  0  0  0  0  0  0  0
   11.9758    8.4577    0.0000 H   0  0  0  0  0  0  0  0  0  0  0  0
   10.4106    1.3312    0.0000 H   0  0  0  0  0  0  0  0  0  0  0  0
   10.4768    4.8984    0.0000 H   0  0  0  0  0  0  0  0  0  0  0  0
    9.9684    4.1841    0.0000 H   0  0  0  0  0  0  0  0  0  0  0  0
   10.6827    3.6756    0.0000 H   0  0  0  0  0  0  0  0  0  0  0  0
   13.9711    7.2643    0.0000 H   0  0  0  0  0  0  0  0  0  0  0  0
   12.9998    4.9423    0.0000 H   0  0  0  0  0  0  0  0  0  0  0  0
   13.8501    5.1561    0.0000 H   0  0  0  0  0  0  0  0  0  0  0  0
   13.6363    6.0065    0.0000 H   0  0  0  0  0  0  0  0  0  0  0  0
   13.8247    3.1256    0.0000 H   0  0  0  0  0  0  0  0  0  0  0  0
   10.6871    4.2440    0.0000 H   0  0  0  0  0  0  0  0  0  0  0  0
    9.9650    3.7466    0.0000 H   0  0  0  0  0  0  0  0  0  0  0  0
   10.4624    3.0245    0.0000 H   0  0  0  0  0  0  0  0  0  0  0  0
   13.9879    1.2754    0.0000 H   0  0  0  0  0  0  0  0  0  0  0  0
   13.5808    1.9621    0.0000 H   0  0  0  0  0  0  0  0  0  0  0  0
   10.9004    0.4146    0.0000 H   0  0  0  0  0  0  0  0  0  0  0  0
   11.2915   -0.2813    0.0000 H   0  0  0  0  0  0  0  0  0  0  0  0
   11.6527    8.6851    0.0000 H   0  0  0  0  0  0  0  0  0  0  0  0
   10.9639    9.0863    0.0000 H   0  0  0  0  0  0  0  0  0  0  0  0
   10.5683    8.2312    0.0000 H   0  0  0  0  0  0  0  0  0  0  0  0
    9.9459    7.6136    0.0000 H   0  0  0  0  0  0  0  0  0  0  0  0
   10.5635    6.9912    0.0000 H   0  0  0  0  0  0  0  0  0  0  0  0
   12.0440   -0.7235    0.0000 H   0  0  0  0  0  0  0  0  0  0  0  0
   12.8423   -0.7266    0.0000 H   0  0  0  0  0  0  0  0  0  0  0  0
    9.4402    2.6818    0.0000 H   0  0  0  0  0  0  0  0  0  0  0  0
   14.8472    7.7486    0.0000 H   0  0  0  0  0  0  0  0  0  0  0  0
   14.3870   -0.3243    0.0000 H   0  0  0  0  0  0  0  0  0  0  0  0
   15.0046    0.2981    0.0000 H   0  0  0  0  0  0  0  0  0  0  0  0
   14.3822    0.9157    0.0000 H   0  0  0  0  0  0  0  0  0  0  0  0
   13.3522   -0.8843    0.0000 H   0  0  0  0  0  0  0  0  0  0  0  0
   14.2000   -1.1080    0.0000 H   0  0  0  0  0  0  0  0  0  0  0  0
   14.4237   -0.2602    0.0000 H   0  0  0  0  0  0  0  0  0  0  0  0
   13.3858    9.0125    0.0000 H   0  0  0  0  0  0  0  0  0  0  0  0
    9.7613    9.0172    0.0000 H   0  0  0  0  0  0  0  0  0  0  0  0
   13.4117   11.2523    0.0000 H   0  0  0  0  0  0  0  0  0  0  0  0
    9.7942    0.0040    0.0000 H   0  0  0  0  0  0  0  0  0  0  0  0
   14.8168   11.4261    0.0000 H   0  0  0  0  0  0  0  0  0  0  0  0
   15.1178    8.9925    0.0000 H   0  0  0  0  0  0  0  0  0  0  0  0
   15.1437   11.2323    0.0000 H   0  0  0  0  0  0  0  0  0  0  0  0
   10.3312   -1.3060    0.0000 H   0  0  0  0  0  0  0  0  0  0  0  0
   12.5515   11.7623    0.0000 H   0  0  0  0  0  0  0  0  0  0  0  0
    9.4651   -2.4260    0.0000 H   0  0  0  0  0  0  0  0  0  0  0  0
    8.0622    0.0040    0.0000 H   0  0  0  0  0  0  0  0  0  0  0  0
   16.5944    8.9877    0.0000 H   0  0  0  0  0  0  0  0  0  0  0  0
   16.2039    9.6826    0.0000 H   0  0  0  0  0  0  0  0  0  0  0  0
    7.5252   -1.3060    0.0000 H   0  0  0  0  0  0  0  0  0  0  0  0
   14.8284   12.4260    0.0000 H   0  0  0  0  0  0  0  0  0  0  0  0
   16.5416   10.7861    0.0000 H   0  0  0  0  0  0  0  0  0  0  0  0
    7.5062    0.4209    0.0000 H   0  0  0  0  0  0  0  0  0  0  0  0
    6.6592    0.1940    0.0000 H   0  0  0  0  0  0  0  0  0  0  0  0
    6.8862   -0.6530    0.0000 H   0  0  0  0  0  0  0  0  0  0  0  0
   11.1972   -2.8060    0.0000 H   0  0  0  0  0  0  0  0  0  0  0  0
    8.3913   -3.4260    0.0000 H   0  0  0  0  0  0  0  0  0  0  0  0
   16.5069    7.7863    0.0000 H   0  0  0  0  0  0  0  0  0  0  0  0
   12.0632   -3.9260    0.0000 H   0  0  0  0  0  0  0  0  0  0  0  0
   12.0632   -4.3060    0.0000 H   0  0  0  0  0  0  0  0  0  0  0  0
    9.2573   -4.3060    0.0000 H   0  0  0  0  0  0  0  0  0  0  0  0
   11.1972   -5.4260    0.0000 H   0  0  0  0  0  0  0  0  0  0  0  0
   12.3923   -2.4960    0.0000 H   0  0  0  0  0  0  0  0  0  0  0  0
    5.0656   -2.5910    0.0000 H   0  0  0  0  0  0  0  0  0  0  0  0
    5.8626   -2.5910    0.0000 H   0  0  0  0  0  0  0  0  0  0  0  0
    8.6182   -4.5791    0.0000 H   0  0  0  0  0  0  0  0  0  0  0  0
    8.3913   -5.4260    0.0000 H   0  0  0  0  0  0  0  0  0  0  0  0
    9.2382   -5.6530    0.0000 H   0  0  0  0  0  0  0  0  0  0  0  0
   12.3923   -5.7360    0.0000 H   0  0  0  0  0  0  0  0  0  0  0  0
    4.5981   -2.2360    0.0000 H   0  0  0  0  0  0  0  0  0  0  0  0
    9.7942   -5.9960    0.0000 H   0  0  0  0  0  0  0  0  0  0  0  0
    5.2181   -0.6160    0.0000 H   0  0  0  0  0  0  0  0  0  0  0  0
    4.5981    0.0040    0.0000 H   0  0  0  0  0  0  0  0  0  0  0  0
    3.9781   -0.6160    0.0000 H   0  0  0  0  0  0  0  0  0  0  0  0
    9.7942   -8.2360    0.0000 H   0  0  0  0  0  0  0  0  0  0  0  0
    8.3913   -8.4260    0.0000 H   0  0  0  0  0  0  0  0  0  0  0  0
    7.8501   -6.0334    0.0000 H   0  0  0  0  0  0  0  0  0  0  0  0
    7.4516   -6.7237    0.0000 H   0  0  0  0  0  0  0  0  0  0  0  0
    7.5252   -7.3060    0.0000 H   0  0  0  0  0  0  0  0  0  0  0  0
   10.6603   -8.7360    0.0000 H   0  0  0  0  0  0  0  0  0  0  0  0
    1.6900   -1.5791    0.0000 H   0  0  0  0  0  0  0  0  0  0  0  0
    1.4631   -2.4260    0.0000 H   0  0  0  0  0  0  0  0  0  0  0  0
    2.3100   -2.6530    0.0000 H   0  0  0  0  0  0  0  0  0  0  0  0
    6.6592   -7.8060    0.0000 H   0  0  0  0  0  0  0  0  0  0  0  0
    8.0622   -8.9960    0.0000 H   0  0  0  0  0  0  0  0  0  0  0  0
    8.0622  -11.2360    0.0000 H   0  0  0  0  0  0  0  0  0  0  0  0
    6.6592  -11.4260    0.0000 H   0  0  0  0  0  0  0  0  0  0  0  0
    6.3301   -8.9960    0.0000 H   0  0  0  0  0  0  0  0  0  0  0  0
    5.7932  -10.3060    0.0000 H   0  0  0  0  0  0  0  0  0  0  0  0
    8.9282  -11.7360    0.0000 H   0  0  0  0  0  0  0  0  0  0  0  0
    5.7741   -8.5791    0.0000 H   0  0  0  0  0  0  0  0  0  0  0  0
    4.9272   -8.8060    0.0000 H   0  0  0  0  0  0  0  0  0  0  0  0
    5.1541   -9.6530    0.0000 H   0  0  0  0  0  0  0  0  0  0  0  0
    6.6592  -12.4260    0.0000 H   0  0  0  0  0  0  0  0  0  0  0  0
    4.9272  -10.8060    0.0000 H   0  0  0  0  0  0  0  0  0  0  0  0
 45  1  1  1  0  0  0
 61  1  1  1  0  0  0
 46  2  1  6  0  0  0
  2133  1  0  0  0  0
 48  3  1  1  0  0  0
  3134  1  0  0  0  0
  4 55  1  0  0  0  0
  4142  1  0  0  0  0
  5 58  1  0  0  0  0
 63  5  1  1  0  0  0
  6 58  2  0  0  0  0
  7 61  1  0  0  0  0
  7 65  1  0  0  0  0
  8 63  1  0  0  0  0
  8 69  1  0  0  0  0
 62  9  1  6  0  0  0
  9149  1  0  0  0  0
 64 10  1  1  0  0  0
 10155  1  0  0  0  0
 67 11  1  1  0  0  0
 73 11  1  1  0  0  0
 66 12  1  6  0  0  0
 12156  1  0  0  0  0
 68 13  1  1  0  0  0
 13161  1  0  0  0  0
 71 14  1  1  0  0  0
 14 76  1  0  0  0  0
 15 70  1  0  0  0  0
 15162  1  0  0  0  0
 16 73  1  0  0  0  0
 16 77  1  0  0  0  0
 74 17  1  6  0  0  0
 17167  1  0  0  0  0
 75 18  1  6  0  0  0
 18173  1  0  0  0  0
 78 19  1  1  0  0  0
 82 19  1  1  0  0  0
 20 76  2  0  0  0  0
 21 81  1  0  0  0  0
 21 88  1  0  0  0  0
 22 82  1  0  0  0  0
 22 86  1  0  0  0  0
 84 23  1  6  0  0  0
 23184  1  0  0  0  0
 85 24  1  1  0  0  0
 90 24  1  1  0  0  0
 87 25  1  6  0  0  0
 25188  1  0  0  0  0
 26 88  2  0  0  0  0
 27 90  1  0  0  0  0
 27 93  1  0  0  0  0
 91 28  1  6  0  0  0
 28194  1  0  0  0  0
 29 92  1  0  0  0  0
 29198  1  0  0  0  0
 94 30  1  1  0  0  0
 30199  1  0  0  0  0
 31 33  1  0  0  0  0
 31 34  1  0  0  0  0
 31 36  1  0  0  0  0
 31 47  1  1  0  0  0
 32 33  1  0  0  0  0
 32 35  1  0  0  0  0
 32 40  1  0  0  0  0
 32 49  1  1  0  0  0
 33 42  1  0  0  0  0
 33 96  1  0  0  0  0
 34 39  1  0  0  0  0
 34 43  1  0  0  0  0
 34 51  1  6  0  0  0
 35 37  1  0  0  0  0
 35 38  1  0  0  0  0
 35 97  1  6  0  0  0
 36 38  1  0  0  0  0
 36 98  1  0  0  0  0
 36 99  1  0  0  0  0
 37 45  1  0  0  0  0
 37 55  1  0  0  0  0
 37 56  1  1  0  0  0
 38100  1  0  0  0  0
 38101  1  0  0  0  0
 39 41  1  0  0  0  0
 39 50  2  0  0  0  0
 40 48  1  0  0  0  0
 40102  1  0  0  0  0
 40103  1  0  0  0  0
 41 44  1  0  0  0  0
 41 52  1  0  0  0  0
 41104  1  1  0  0  0
 42 50  1  0  0  0  0
 42105  1  0  0  0  0
 42106  1  0  0  0  0
 43 46  1  0  0  0  0
 43107  1  0  0  0  0
 43108  1  0  0  0  0
 44 46  1  0  0  0  0
 44 53  1  0  0  0  0
 44 58  1  1  0  0  0
 45 48  1  0  0  0  0
 45109  1  0  0  0  0
 46110  1  0  0  0  0
 47111  1  0  0  0  0
 47112  1  0  0  0  0
 47113  1  0  0  0  0
 48114  1  0  0  0  0
 49115  1  0  0  0  0
 49116  1  0  0  0  0
 49117  1  0  0  0  0
 50118  1  0  0  0  0
 51119  1  0  0  0  0
 51120  1  0  0  0  0
 51121  1  0  0  0  0
 52 54  1  0  0  0  0
 52122  1  0  0  0  0
 52123  1  0  0  0  0
 53 57  1  0  0  0  0
 53124  1  0  0  0  0
 53125  1  0  0  0  0
 54 57  1  0  0  0  0
 54 59  1  0  0  0  0
 54 60  1  0  0  0  0
 55126  1  0  0  0  0
 55127  1  0  0  0  0
 56128  1  0  0  0  0
 56129  1  0  0  0  0
 56130  1  0  0  0  0
 57131  1  0  0  0  0
 57132  1  0  0  0  0
 59135  1  0  0  0  0
 59136  1  0  0  0  0
 59137  1  0  0  0  0
 60138  1  0  0  0  0
 60139  1  0  0  0  0
 60140  1  0  0  0  0
 61 62  1  0  0  0  0
 61141  1  0  0  0  0
 62 64  1  0  0  0  0
 62143  1  0  0  0  0
 63 67  1  0  0  0  0
 63144  1  0  0  0  0
 64 66  1  0  0  0  0
 64145  1  0  0  0  0
 65 66  1  0  0  0  0
 65 70  1  1  0  0  0
 65146  1  0  0  0  0
 66147  1  0  0  0  0
 67 68  1  0  0  0  0
 67148  1  0  0  0  0
 68 71  1  0  0  0  0
 68150  1  0  0  0  0
 69 71  1  0  0  0  0
 69 72  1  1  0  0  0
 69151  1  0  0  0  0
 70152  1  0  0  0  0
 70153  1  0  0  0  0
 71154  1  0  0  0  0
 72157  1  0  0  0  0
 72158  1  0  0  0  0
 72159  1  0  0  0  0
 73 74  1  0  0  0  0
 73160  1  0  0  0  0
 74 75  1  0  0  0  0
 74163  1  0  0  0  0
 75 78  1  0  0  0  0
 75164  1  0  0  0  0
 76 79  1  0  0  0  0
 77 78  1  0  0  0  0
 77 80  1  6  0  0  0
 77165  1  0  0  0  0
 78166  1  0  0  0  0
 79 81  1  0  0  0  0
 79168  1  0  0  0  0
 79169  1  0  0  0  0
 80170  1  0  0  0  0
 80171  1  0  0  0  0
 80172  1  0  0  0  0
 81 83  1  0  0  0  0
 81174  1  0  0  0  0
 82 84  1  0  0  0  0
 82175  1  0  0  0  0
 83176  1  0  0  0  0
 83177  1  0  0  0  0
 83178  1  0  0  0  0
 84 85  1  0  0  0  0
 84179  1  0  0  0  0
 85 87  1  0  0  0  0
 85180  1  0  0  0  0
 86 87  1  0  0  0  0
 86181  1  0  0  0  0
 86182  1  0  0  0  0
 87183  1  0  0  0  0
 88 89  1  0  0  0  0
 89185  1  0  0  0  0
 89186  1  0  0  0  0
 89187  1  0  0  0  0
 90 91  1  0  0  0  0
 90189  1  0  0  0  0
 91 92  1  0  0  0  0
 91190  1  0  0  0  0
 92 94  1  0  0  0  0
 92191  1  0  0  0  0
 93 94  1  0  0  0  0
 93 95  1  6  0  0  0
 93192  1  0  0  0  0
 94193  1  0  0  0  0
 95195  1  0  0  0  0
 95196  1  0  0  0  0
 95197  1  0  0  0  0
M  END
> <PUBCHEM_COMPOUND_CID>
15000100

> <PUBCHEM_COMPOUND_CANONICALIZED>
1

> <PUBCHEM_CACTVS_COMPLEXITY>
2740

> <PUBCHEM_CACTVS_HBOND_ACCEPTOR>
30

> <PUBCHEM_CACTVS_HBOND_DONOR>
15

> <PUBCHEM_CACTVS_ROTATABLE_BOND>
19

> <PUBCHEM_CACTVS_SUBSKEYS>
AAADcfB8PgAAAAAAAAAAAAAAAAAAAAAAAAA0aNGiQAAAAADAAAAAGgAACAAADxSwgAMCCAAABgCIAiDSCAAAAAAgAAAACAEAAAgREBYAAQAiQAAFoAAPAAPI6PyPgAAAAAAAAADAAAYAADCAAAAAAAAAAA==

> <PUBCHEM_IUPAC_OPENEYE_NAME>
[(2S,3S,4S,5R,6R)-5-(3-acetoxybutanoyloxy)-3-[(2S,3R,4S,5R,6S)-5-[(2S,3R,4S,5R)-3,5-dihydroxy-4-[(2S,3R,5R,6S)-3,4,5-trihydroxy-6-methyl-tetrahydropyran-2-yl]oxy-tetrahydropyran-2-yl]oxy-3,4-dihydroxy-6-methyl-tetrahydropyran-2-yl]oxy-4-hydroxy-6-methyl-tetrahydropyran-2-yl] (4aR,5R,6aS,6bR,8aR,9R,10R,11S,12aR,14bS)-5,11-dihydroxy-9-(hydroxymethyl)-2,2,6a,6b,9,12a-hexamethyl-10-[(2R,3R,4S,5S,6R)-3,4,5-trihydroxy-6-(hydroxymethyl)tetrahydropyran-2-yl]oxy-1,3,4,5,6,6a,7,8,8a,10,11,12,13,14b-tetradecahydropicene-4a-carboxylate

> <PUBCHEM_IUPAC_CAS_NAME>
(4aR,5R,6aS,6bR,8aR,9R,10R,11S,12aR,14bS)-5,11-dihydroxy-9-(hydroxymethyl)-2,2,6a,6b,9,12a-hexamethyl-10-[[(2R,3R,4S,5S,6R)-3,4,5-trihydroxy-6-(hydroxymethyl)-2-oxanyl]oxy]-1,3,4,5,6,6a,7,8,8a,10,11,12,13,14b-tetradecahydropicene-4a-carboxylic acid [(2S,3S,4S,5R,6R)-5-(3-acetyloxy-1-oxobutoxy)-3-[[(2S,3R,4S,5R,6S)-5-[[(2S,3R,4S,5R)-3,5-dihydroxy-4-[[(2S,3R,5R,6S)-3,4,5-trihydroxy-6-methyl-2-oxanyl]oxy]-2-oxanyl]oxy]-3,4-dihydroxy-6-methyl-2-oxanyl]oxy]-4-hydroxy-6-methyl-2-oxanyl] ester

> <PUBCHEM_IUPAC_NAME_MARKUP>
[(2<I>S</I>,3<I>S</I>,4<I>S</I>,5<I>R</I>,6<I>R</I>)-5-(3-acetyloxybutanoyloxy)-3-[(2<I>S</I>,3<I>R</I>,4<I>S</I>,5<I>R</I>,6<I>S</I>)-5-[(2<I>S</I>,3<I>R</I>,4<I>S</I>,5<I>R</I>)-3,5-dihydroxy-4-[(2<I>S</I>,3<I>R</I>,5<I>R</I>,6<I>S</I>)-3,4,5-trihydroxy-6-methyloxan-2-yl]oxyoxan-2-yl]oxy-3,4-dihydroxy-6-methyloxan-2-yl]oxy-4-hydroxy-6-methyloxan-2-yl] (4<I>a</I><I>R</I>,5<I>R</I>,6<I>a</I><I>S</I>,6<I>b</I><I>R</I>,8<I>a</I><I>R</I>,9<I>R</I>,10<I>R</I>,11<I>S</I>,12<I>a</I><I>R</I>,14<I>b</I><I>S</I>)-5,11-dihydroxy-9-(hydroxymethyl)-2,2,6<I>a</I>,6<I>b</I>,9,12<I>a</I>-hexamethyl-10-[(2<I>R</I>,3<I>R</I>,4<I>S</I>,5<I>S</I>,6<I>R</I>)-3,4,5-trihydroxy-6-(hydroxymethyl)oxan-2-yl]oxy-1,3,4,5,6,6<I>a</I>,7,8,8<I>a</I>,10,11,12,13,14<I>b</I>-tetradecahydropicene-4<I>a</I>-carboxylate

> <PUBCHEM_IUPAC_NAME>
[(2S,3S,4S,5R,6R)-5-(3-acetyloxybutanoyloxy)-3-[(2S,3R,4S,5R,6S)-5-[(2S,3R,4S,5R)-3,5-dihydroxy-4-[(2S,3R,5R,6S)-3,4,5-trihydroxy-6-methyloxan-2-yl]oxyoxan-2-yl]oxy-3,4-dihydroxy-6-methyloxan-2-yl]oxy-4-hydroxy-6-methyloxan-2-yl] (4aR,5R,6aS,6bR,8aR,9R,10R,11S,12aR,14bS)-5,11-dihydroxy-9-(hydroxymethyl)-2,2,6a,6b,9,12a-hexamethyl-10-[(2R,3R,4S,5S,6R)-3,4,5-trihydroxy-6-(hydroxymethyl)oxan-2-yl]oxy-1,3,4,5,6,6a,7,8,8a,10,11,12,13,14b-tetradecahydropicene-4a-carboxylate

> <PUBCHEM_IUPAC_SYSTEMATIC_NAME>
[(2S,3S,4S,5R,6R)-5-(3-acetyloxybutanoyloxy)-6-methyl-3-[(2S,3R,4S,5R,6S)-6-methyl-5-[(2S,3R,4S,5R)-4-[(2S,3R,5R,6S)-6-methyl-3,4,5-tris(oxidanyl)oxan-2-yl]oxy-3,5-bis(oxidanyl)oxan-2-yl]oxy-3,4-bis(oxidanyl)oxan-2-yl]oxy-4-oxidanyl-oxan-2-yl] (4aR,5R,6aS,6bR,8aR,9R,10R,11S,12aR,14bS)-9-(hydroxymethyl)-10-[(2R,3R,4S,5S,6R)-6-(hydroxymethyl)-3,4,5-tris(oxidanyl)oxan-2-yl]oxy-2,2,6a,6b,9,12a-hexamethyl-5,11-bis(oxidanyl)-1,3,4,5,6,6a,7,8,8a,10,11,12,13,14b-tetradecahydropicene-4a-carboxylate

> <PUBCHEM_IUPAC_TRADITIONAL_NAME>
(4aR,5R,6aS,6bR,8aR,9R,10R,11S,12aR,14bS)-5,11-dihydroxy-2,2,6a,6b,9,12a-hexamethyl-9-methylol-10-[(2R,3R,4S,5S,6R)-3,4,5-trihydroxy-6-methylol-tetrahydropyran-2-yl]oxy-1,3,4,5,6,6a,7,8,8a,10,11,12,13,14b-tetradecahydropicene-4a-carboxylic acid [(2S,3S,4S,5R,6R)-5-(3-acetoxybutanoyloxy)-3-[(2S,3R,4S,5R,6S)-5-[(2S,3R,4S,5R)-3,5-dihydroxy-4-[(2S,3R,5R,6S)-3,4,5-trihydroxy-6-methyl-tetrahydropyran-2-yl]oxy-tetrahydropyran-2-yl]oxy-3,4-dihydroxy-6-methyl-tetrahydropyran-2-yl]oxy-4-hydroxy-6-methyl-tetrahydropyran-2-yl] ester

> <PUBCHEM_IUPAC_INCHI>
InChI=1S/C65H104O30/c1-25(85-29(5)68)18-38(72)90-50-28(4)88-58(52(47(50)81)93-56-46(80)43(77)49(27(3)87-56)91-54-48(82)51(33(70)23-84-54)92-55-44(78)41(75)39(73)26(2)86-55)95-59(83)65-17-16-60(6,7)19-31(65)30-12-13-36-61(8)20-32(69)53(94-57-45(79)42(76)40(74)34(22-66)89-57)62(9,24-67)35(61)14-15-63(36,10)64(30,11)21-37(65)71/h12,25-28,31-37,39-58,66-67,69-71,73-82H,13-24H2,1-11H3/t25?,26-,27-,28+,31-,32-,33+,34+,35+,36?,37+,39-,40+,41?,42-,43-,44+,45+,46+,47-,48+,49-,50-,51-,52-,53-,54-,55-,56-,57-,58-,61-,62-,63+,64+,65+/m0/s1

> <PUBCHEM_IUPAC_INCHIKEY>
AQMYEPXRNKOFMR-SAGKSINNSA-N

> <PUBCHEM_XLOGP3_AA>
-1.1

> <PUBCHEM_EXACT_MASS>
1364.66124190

> <PUBCHEM_MOLECULAR_FORMULA>
C65H104O30

> <PUBCHEM_MOLECULAR_WEIGHT>
1365.5

> <PUBCHEM_SMILES>
C[C@H]1[C@@H]([C@H]([C@H]([C@@H](O1)O[C@H]2[C@H]([C@H]([C@H](O[C@H]2OC(=O)[C@]34CCC(C[C@H]3C5=CCC6[C@]([C@@]5(C[C@H]4O)C)(CC[C@@H]7[C@@]6(C[C@@H]([C@@H]([C@@]7(C)CO)O[C@H]8[C@@H]([C@H]([C@@H]([C@H](O8)CO)O)O)O)O)C)C)(C)C)C)OC(=O)CC(C)OC(=O)C)O)O)O)O[C@H]9[C@@H]([C@H]([C@@H](CO9)O)O[C@H]1[C@@H](C([C@H]([C@@H](O1)C)O)O)O)O

> <PUBCHEM_CONNECTIVITY_SMILES>
CC1C(C(C(C(O1)OC2C(COC(C2O)OC3C(OC(C(C3O)O)OC4C(C(C(OC4OC(=O)C56CCC(CC5C7=CCC8C(C7(CC6O)C)(CCC9C8(CC(C(C9(C)CO)OC1C(C(C(C(O1)CO)O)O)O)O)C)C)(C)C)C)OC(=O)CC(C)OC(=O)C)O)C)O)O)O)O

> <PUBCHEM_CACTVS_TPSA>
465

> <PUBCHEM_MONOISOTOPIC_WEIGHT>
1364.66124190

> <PUBCHEM_TOTAL_CHARGE>
0

> <PUBCHEM_HEAVY_ATOM_COUNT>
95

> <PUBCHEM_ATOM_DEF_STEREO_COUNT>
33

> <PUBCHEM_ATOM_UDEF_STEREO_COUNT>
3

> <PUBCHEM_BOND_DEF_STEREO_COUNT>
0

> <PUBCHEM_BOND_UDEF_STEREO_COUNT>
0

> <PUBCHEM_ISOTOPIC_ATOM_COUNT>
0

> <PUBCHEM_COMPONENT_COUNT>
1

> <PUBCHEM_CACTVS_TAUTO_COUNT>
-1

> <PUBCHEM_COORDINATE_TYPE>
1
5
255

> <PUBCHEM_BONDANNOTATIONS>
45  1  5
61  1  5
64  10  5
67  11  5
73  11  5
66  12  6
68  13  5
71  14  5
74  17  6
75  18  6
78  19  5
82  19  5
46  2  6
84  23  6
85  24  5
90  24  5
87  25  6
91  28  6
92  29  3
48  3  5
94  30  5
31  47  5
32  49  5
33  42  3
34  51  6
35  97  6
37  56  5
41  104  5
44  58  5
63  5  5
65  70  5
69  72  5
77  80  6
81  83  3
62  9  6
93  95  6

$$$$
